/*--------------------------------*- C++ -*----------------------------------*\
| =========                 |                                                 |
| \\      /  F ield         | OpenFOAM: The Open Source CFD Toolbox           |
|  \\    /   O peration     | Version:  5.0                                   |
|   \\  /    A nd           | Web:      www.OpenFOAM.org                      |
|    \\/     M anipulation  |                                                 |
\*---------------------------------------------------------------------------*/
FoamFile
{
    version     2.0;
    format      ascii;
    class       volScalarField;
    location    "50.4676134421789371";
    object      alphat;
}
// * * * * * * * * * * * * * * * * * * * * * * * * * * * * * * * * * * * * * //

dimensions      [0 2 -1 0 0 0 0];

internalField   nonuniform List<scalar> 
60000
(
0.000122467
0.00011954
0.000110625
9.83475e-05
8.74175e-05
8.21384e-05
8.27772e-05
8.61539e-05
9.24677e-05
0.000102852
0.000113931
0.000120559
0.000120175
0.000114953
0.000109653
0.000107979
0.000111542
0.000119135
0.000128055
0.000135929
0.000141944
0.000147935
0.000156738
0.000169034
0.000183679
0.000198928
0.000211625
0.000217454
0.000212842
0.000198388
0.000181123
0.000169777
0.000166414
0.000166591
0.000162853
0.000150001
0.000131574
0.00011852
0.000116358
0.000120008
0.000113761
0.000115261
0.000111656
0.000104176
9.41805e-05
8.44725e-05
7.92459e-05
7.88742e-05
8.16918e-05
8.94058e-05
0.000100782
0.000110095
0.000112643
0.000108304
0.000101848
9.94753e-05
0.000103641
0.000110959
0.000117131
0.000120046
0.000120289
0.000120849
0.000126817
0.000138741
0.000153095
0.000167077
0.000178859
0.00018628
0.000187005
0.000179718
0.000166522
0.000153719
0.00014692
0.000146167
0.000146819
0.000141927
0.000127901
0.000111717
0.000104957
0.000108385
8.98884e-05
9.61608e-05
9.92564e-05
9.83877e-05
9.28362e-05
8.26426e-05
7.17288e-05
6.5294e-05
6.27796e-05
6.37633e-05
7.06753e-05
8.11533e-05
8.84723e-05
8.85185e-05
8.3348e-05
7.97268e-05
8.21356e-05
8.78953e-05
9.15314e-05
9.05728e-05
8.69659e-05
8.40299e-05
8.59031e-05
9.35526e-05
0.000103899
0.000113877
0.000122578
0.000130261
0.000136549
0.000138883
0.000134327
0.000124084
0.000114186
0.000109292
0.000110488
0.000113799
0.000110571
9.77346e-05
8.58289e-05
8.42485e-05
6.87011e-05
7.44823e-05
8.07419e-05
8.44389e-05
8.45061e-05
7.95187e-05
6.97151e-05
5.88491e-05
5.08754e-05
4.59831e-05
4.52274e-05
5.10778e-05
6.04428e-05
6.56805e-05
6.4362e-05
6.1807e-05
6.44229e-05
7.12941e-05
7.5583e-05
7.25813e-05
6.43941e-05
5.79883e-05
5.69691e-05
6.032e-05
6.61943e-05
7.16042e-05
7.53185e-05
7.95398e-05
8.68482e-05
9.60872e-05
0.000101725
9.97409e-05
9.20304e-05
8.38486e-05
7.99197e-05
8.29e-05
8.78507e-05
8.49612e-05
7.43477e-05
6.73131e-05
6.08311e-05
6.28212e-05
6.74419e-05
7.28567e-05
7.69285e-05
7.80306e-05
7.41573e-05
6.52107e-05
5.39318e-05
4.33138e-05
3.5874e-05
3.3125e-05
3.79685e-05
4.6357e-05
5.04316e-05
5.15663e-05
5.65243e-05
6.56884e-05
7.2489e-05
7.09968e-05
5.92953e-05
4.66659e-05
4.25996e-05
4.33807e-05
4.42151e-05
4.34442e-05
4.17836e-05
4.20762e-05
4.67252e-05
5.75834e-05
7.16347e-05
8.13077e-05
8.23718e-05
7.63727e-05
6.83689e-05
6.51508e-05
7.00997e-05
7.5939e-05
7.29957e-05
6.45502e-05
5.91556e-05
5.68969e-05
5.79731e-05
6.15538e-05
6.73991e-05
7.35481e-05
7.66998e-05
7.45492e-05
6.62273e-05
5.25883e-05
3.73907e-05
2.65821e-05
2.21195e-05
2.68768e-05
3.5675e-05
4.34271e-05
5.27591e-05
6.23274e-05
6.96403e-05
7.21491e-05
6.27554e-05
4.47232e-05
3.44402e-05
3.18766e-05
2.50545e-05
1.75648e-05
1.69233e-05
1.92871e-05
2.14854e-05
2.61372e-05
3.81995e-05
5.50806e-05
6.80196e-05
7.18519e-05
6.7106e-05
5.97261e-05
5.81548e-05
6.418e-05
6.92943e-05
6.60077e-05
5.83882e-05
5.23183e-05
4.94642e-05
4.85639e-05
5.08942e-05
5.82037e-05
6.75756e-05
7.41507e-05
7.48991e-05
6.65266e-05
4.87209e-05
2.84805e-05
1.66432e-05
1.59713e-05
2.57319e-05
3.93449e-05
5.1076e-05
5.70181e-05
6.09116e-05
6.61644e-05
6.47122e-05
4.79123e-05
2.92847e-05
2.08267e-05
1.37888e-05
1.62649e-05
2.00323e-05
2.02484e-05
1.93426e-05
1.84553e-05
1.84482e-05
2.56902e-05
4.12503e-05
5.58974e-05
6.25429e-05
5.98775e-05
5.41534e-05
5.35721e-05
5.88809e-05
6.22526e-05
5.44513e-05
4.96325e-05
4.3247e-05
3.85017e-05
3.53746e-05
3.67337e-05
4.54982e-05
5.78941e-05
6.87754e-05
7.26469e-05
6.33375e-05
4.14856e-05
2.16296e-05
2.06626e-05
3.19559e-05
4.4659e-05
5.05461e-05
4.88685e-05
4.72193e-05
5.20357e-05
5.92236e-05
5.16092e-05
2.94268e-05
1.41385e-05
1.91793e-05
2.5084e-05
2.4994e-05
2.26417e-05
2.05832e-05
1.9108e-05
1.80258e-05
1.6483e-05
1.8461e-05
3.04597e-05
4.5329e-05
5.39665e-05
5.35111e-05
4.95614e-05
4.95189e-05
5.33124e-05
4.59288e-05
4.56798e-05
4.12613e-05
3.5909e-05
3.10913e-05
2.75832e-05
2.84268e-05
3.55023e-05
4.71492e-05
6.06905e-05
6.7031e-05
5.62891e-05
3.44918e-05
2.70519e-05
3.75399e-05
4.56459e-05
4.30622e-05
3.52357e-05
3.08647e-05
3.41734e-05
4.53569e-05
5.00493e-05
3.38334e-05
1.3543e-05
1.96382e-05
2.42893e-05
2.33133e-05
2.22661e-05
2.15916e-05
2.03913e-05
1.87853e-05
1.67355e-05
1.36837e-05
1.24474e-05
2.12992e-05
3.45206e-05
4.30407e-05
4.407e-05
4.21073e-05
4.2997e-05
3.45061e-05
3.86478e-05
4.03799e-05
3.88953e-05
3.48192e-05
2.90301e-05
2.39914e-05
2.24295e-05
2.49714e-05
3.53574e-05
5.20556e-05
5.93164e-05
4.64665e-05
2.99905e-05
3.08443e-05
3.26606e-05
2.6587e-05
1.9168e-05
1.68066e-05
2.00647e-05
2.90413e-05
4.08336e-05
3.6193e-05
1.80318e-05
1.43804e-05
1.69611e-05
1.97783e-05
2.29915e-05
2.42185e-05
2.35776e-05
2.19262e-05
1.92112e-05
1.50363e-05
9.87438e-06
7.21643e-06
1.32735e-05
2.19719e-05
2.79134e-05
2.9827e-05
3.09697e-05
2.26637e-05
3.01153e-05
3.72483e-05
3.9725e-05
3.69001e-05
3.03163e-05
2.25673e-05
1.59412e-05
1.17353e-05
1.28701e-05
2.69544e-05
4.5772e-05
4.86546e-05
3.20691e-05
1.93521e-05
1.89177e-05
1.70727e-05
1.26033e-05
9.22322e-06
1.07524e-05
1.72239e-05
2.81458e-05
3.26441e-05
2.27028e-05
1.135e-05
1.24064e-05
2.01348e-05
2.47014e-05
2.59506e-05
2.54689e-05
2.44018e-05
2.26618e-05
1.8895e-05
1.27511e-05
6.41268e-06
5.70272e-06
9.56587e-06
1.29394e-05
1.55926e-05
1.81049e-05
1.48626e-05
2.25223e-05
3.16521e-05
3.57045e-05
3.27233e-05
2.59258e-05
1.90517e-05
1.24834e-05
6.73067e-06
4.201e-06
9.36955e-06
2.67655e-05
4.01451e-05
3.31667e-05
1.63357e-05
1.65906e-05
2.06916e-05
1.96416e-05
1.55176e-05
9.82026e-06
1.04607e-05
1.98883e-05
2.6896e-05
2.50779e-05
1.89336e-05
1.86093e-05
2.20553e-05
2.44606e-05
2.51807e-05
2.4753e-05
2.43822e-05
2.45624e-05
2.30782e-05
1.75087e-05
9.48141e-06
5.44655e-06
8.24462e-06
1.03146e-05
1.11442e-05
1.19017e-05
1.45729e-05
1.86777e-05
2.40662e-05
2.62333e-05
2.41798e-05
2.1376e-05
1.87056e-05
1.39405e-05
8.51622e-06
6.38205e-06
7.00766e-06
1.71421e-05
3.0842e-05
3.14297e-05
1.82172e-05
1.74561e-05
2.60285e-05
2.8212e-05
2.39554e-05
1.64062e-05
1.12141e-05
1.73735e-05
2.49567e-05
2.61048e-05
2.21232e-05
1.8502e-05
1.95801e-05
2.17578e-05
2.2346e-05
2.14726e-05
2.10458e-05
2.30829e-05
2.54679e-05
2.30809e-05
1.48346e-05
7.60874e-06
9.85359e-06
1.25948e-05
1.32407e-05
1.34372e-05
1.7328e-05
1.921e-05
1.82059e-05
1.34363e-05
1.24417e-05
1.6874e-05
1.86534e-05
1.61467e-05
1.16333e-05
9.11518e-06
9.04059e-06
1.4853e-05
2.53832e-05
2.82226e-05
1.901e-05
1.78741e-05
2.70118e-05
2.95179e-05
2.53252e-05
1.99422e-05
1.7849e-05
1.90717e-05
2.17403e-05
1.98365e-05
1.40432e-05
1.49461e-05
1.86332e-05
2.01187e-05
1.91774e-05
1.65058e-05
1.4619e-05
1.71752e-05
2.34012e-05
2.65107e-05
2.13551e-05
1.13015e-05
8.40853e-06
1.24445e-05
1.44606e-05
1.56175e-05
1.89984e-05
2.03723e-05
1.72122e-05
9.47159e-06
4.75428e-06
9.48472e-06
1.24956e-05
1.34578e-05
1.26624e-05
1.0875e-05
9.04239e-06
1.20725e-05
2.04741e-05
2.45363e-05
1.90002e-05
1.58444e-05
2.07698e-05
2.15365e-05
1.89402e-05
1.77905e-05
2.02967e-05
2.4137e-05
2.42842e-05
1.98182e-05
1.52561e-05
1.61018e-05
2.00815e-05
2.14985e-05
1.89871e-05
1.49303e-05
1.20858e-05
1.25463e-05
1.82053e-05
2.50235e-05
2.55017e-05
1.74867e-05
8.18048e-06
9.53132e-06
1.33202e-05
1.60668e-05
1.93833e-05
2.08365e-05
1.81245e-05
1.26263e-05
8.19505e-06
6.28669e-06
5.33048e-06
6.90323e-06
1.0099e-05
1.14072e-05
1.04276e-05
1.13883e-05
1.83294e-05
2.28407e-05
1.8879e-05
1.22005e-05
1.32555e-05
1.54931e-05
1.57243e-05
1.63208e-05
1.87162e-05
2.344e-05
2.84654e-05
3.06532e-05
3.21395e-05
3.62161e-05
3.90292e-05
3.62241e-05
2.86989e-05
2.05787e-05
1.53076e-05
1.29421e-05
1.38298e-05
1.96067e-05
2.45653e-05
2.20538e-05
1.31211e-05
7.39152e-06
1.12844e-05
1.57022e-05
1.69209e-05
1.90667e-05
1.82497e-05
1.55643e-05
1.3285e-05
1.11596e-05
7.39573e-06
2.85983e-06
6.55287e-06
1.10309e-05
1.33814e-05
1.51478e-05
1.92495e-05
2.28844e-05
2.08075e-05
1.57298e-05
1.43743e-05
1.46344e-05
1.51999e-05
1.76708e-05
2.07755e-05
2.35625e-05
2.62381e-05
2.98011e-05
3.49261e-05
3.99268e-05
4.14136e-05
3.85822e-05
3.24669e-05
2.46309e-05
1.82003e-05
1.53212e-05
1.29696e-05
1.25482e-05
1.8675e-05
2.29369e-05
1.98649e-05
1.20646e-05
8.19123e-06
1.24511e-05
1.06904e-05
1.32377e-05
1.46935e-05
1.68687e-05
1.99532e-05
1.92226e-05
1.36943e-05
7.29051e-06
5.08882e-06
8.69842e-06
1.25623e-05
1.58097e-05
1.88097e-05
2.08724e-05
1.99043e-05
1.55962e-05
1.34218e-05
1.67988e-05
2.00791e-05
2.18192e-05
2.38559e-05
2.61185e-05
2.72496e-05
2.5428e-05
1.91243e-05
1.18752e-05
1.81039e-05
2.53881e-05
2.2848e-05
1.69338e-05
2.04598e-05
2.63063e-05
2.60815e-05
1.76504e-05
9.65922e-06
1.71837e-05
2.35669e-05
2.28817e-05
1.69711e-05
1.09937e-05
1.67789e-05
1.15915e-05
1.766e-05
2.47876e-05
2.53032e-05
1.91839e-05
1.32578e-05
1.27596e-05
1.11051e-05
6.61966e-06
9.12035e-06
1.51327e-05
1.81144e-05
1.72183e-05
1.28609e-05
1.03763e-05
1.7873e-05
2.39645e-05
2.3783e-05
2.03251e-05
1.86405e-05
1.79607e-05
1.72979e-05
1.86542e-05
2.42814e-05
3.2227e-05
3.41965e-05
2.6075e-05
1.5607e-05
1.61721e-05
1.9786e-05
2.40313e-05
3.05537e-05
3.11746e-05
2.18809e-05
1.31267e-05
1.88002e-05
2.63158e-05
2.85284e-05
2.46868e-05
2.05933e-05
1.22145e-05
8.88894e-06
1.60013e-05
1.85849e-05
1.66296e-05
1.45738e-05
1.41033e-05
1.25885e-05
7.75512e-06
7.93845e-06
1.48558e-05
1.83082e-05
1.79511e-05
1.78501e-05
2.14043e-05
2.60235e-05
2.74044e-05
2.41962e-05
1.88269e-05
1.69265e-05
1.78193e-05
1.54173e-05
1.18249e-05
1.35904e-05
1.49704e-05
1.28495e-05
1.37522e-05
1.69024e-05
1.71612e-05
1.50797e-05
1.21092e-05
1.80376e-05
3.06624e-05
3.53072e-05
2.99276e-05
2.3335e-05
2.2295e-05
2.42109e-05
2.45096e-05
1.43354e-05
1.45198e-05
1.39738e-05
1.40394e-05
1.45053e-05
1.35665e-05
1.19496e-05
1.24709e-05
1.40939e-05
1.38619e-05
1.2981e-05
1.40489e-05
1.70301e-05
2.13342e-05
2.4403e-05
2.44797e-05
2.2921e-05
2.14916e-05
1.98112e-05
1.66402e-05
1.35614e-05
1.39597e-05
1.52791e-05
1.48607e-05
1.32058e-05
1.03058e-05
7.16315e-06
7.39572e-06
1.06901e-05
1.43525e-05
1.59717e-05
1.30218e-05
7.75054e-06
1.79653e-05
3.08203e-05
3.52173e-05
3.1934e-05
2.58427e-05
1.95339e-05
1.51452e-05
1.61605e-05
1.87795e-05
2.02251e-05
1.95231e-05
1.65772e-05
1.2483e-05
1.05016e-05
1.30166e-05
1.74863e-05
2.03446e-05
2.07974e-05
2.08691e-05
2.14829e-05
2.17823e-05
2.09451e-05
1.77502e-05
1.3185e-05
1.44218e-05
2.09179e-05
2.50764e-05
2.48793e-05
2.2427e-05
2.02613e-05
1.84333e-05
1.62098e-05
1.48689e-05
1.64997e-05
2.0281e-05
2.37067e-05
2.5404e-05
2.48098e-05
2.09398e-05
1.31249e-05
1.18484e-05
2.17158e-05
2.72966e-05
2.68893e-05
2.35409e-05
1.93453e-05
1.59291e-05
2.06314e-05
2.55607e-05
2.92551e-05
2.93482e-05
2.5727e-05
2.09895e-05
1.8703e-05
1.9531e-05
2.03869e-05
1.90598e-05
1.59003e-05
1.33474e-05
1.18188e-05
8.62426e-06
7.78709e-06
1.21514e-05
1.43689e-05
1.54681e-05
1.96224e-05
2.38961e-05
2.41308e-05
1.99612e-05
1.43567e-05
1.20189e-05
1.40336e-05
1.67529e-05
1.86665e-05
2.00202e-05
2.10595e-05
2.13068e-05
1.99286e-05
1.73695e-05
1.50947e-05
1.34554e-05
1.47343e-05
1.72946e-05
1.69224e-05
1.48882e-05
1.45584e-05
1.66933e-05
1.16837e-05
1.58099e-05
1.98394e-05
2.23601e-05
2.25171e-05
2.11136e-05
2.16427e-05
2.54501e-05
2.87968e-05
2.80824e-05
2.25763e-05
1.43295e-05
7.76325e-06
7.35008e-06
9.60954e-06
1.16933e-05
1.20763e-05
9.7553e-06
8.53636e-06
1.17218e-05
1.42081e-05
1.45323e-05
1.54129e-05
1.73383e-05
1.80716e-05
1.68781e-05
1.47734e-05
1.25277e-05
1.09524e-05
1.03576e-05
8.92748e-06
8.03719e-06
1.46045e-05
2.15493e-05
2.25744e-05
1.90407e-05
1.54853e-05
1.34701e-05
1.15559e-05
1.00635e-05
1.29586e-05
1.28833e-05
1.49195e-05
1.50346e-05
1.32581e-05
1.39302e-05
1.79146e-05
2.12071e-05
2.2721e-05
2.41186e-05
2.59972e-05
2.79463e-05
3.044e-05
3.34313e-05
3.51579e-05
3.40126e-05
3.01067e-05
2.47924e-05
1.94861e-05
1.54754e-05
1.40107e-05
1.48544e-05
1.55563e-05
1.45255e-05
1.28939e-05
1.24312e-05
1.15995e-05
8.58982e-06
4.91613e-06
5.29579e-06
7.49193e-06
8.73171e-06
1.14585e-05
1.69783e-05
2.16527e-05
2.33146e-05
2.30284e-05
2.20421e-05
2.00276e-05
1.64862e-05
7.77816e-05
8.17666e-05
8.34739e-05
8.57186e-05
9.20487e-05
0.000100996
0.000107904
0.000110177
0.000108456
0.000107133
0.000109482
0.000115147
0.000122703
0.000131521
0.000141816
0.000153606
0.000165711
0.000175927
0.000182137
0.000182477
0.00017553
0.000164927
0.000158979
0.000161709
0.000171324
0.000183832
0.00019402
0.000198049
0.00019605
0.000192167
0.00019134
0.000194853
0.000199581
0.000200346
0.000190983
0.000164773
0.000123868
8.92689e-05
7.50038e-05
7.38988e-05
7.0789e-05
7.48501e-05
7.71557e-05
7.91235e-05
8.28929e-05
8.92775e-05
9.63513e-05
0.000100358
9.92092e-05
9.53488e-05
9.43301e-05
9.78408e-05
0.000103464
0.000109813
0.000117995
0.000128918
0.000141128
0.000151996
0.000159617
0.000162511
0.000157616
0.000144793
0.000132846
0.000131943
0.00014223
0.000156325
0.000167837
0.000173787
0.000173916
0.00017051
0.000167535
0.000167892
0.000171066
0.000174033
0.000172602
0.000161483
0.000134331
9.7174e-05
7.23029e-05
6.71524e-05
5.80695e-05
6.23285e-05
6.5117e-05
6.57125e-05
6.5413e-05
6.64097e-05
7.03568e-05
7.49921e-05
7.65955e-05
7.38648e-05
7.02286e-05
7.02206e-05
7.32401e-05
7.68888e-05
8.18627e-05
8.97862e-05
9.96173e-05
0.000108697
0.000115793
0.000120829
0.000120868
0.000111092
9.62623e-05
8.93907e-05
9.52852e-05
0.000107667
0.000119167
0.000126998
0.000130442
0.000129578
0.000126264
0.000123803
0.000124199
0.000127233
0.000131588
0.000134527
0.000128462
0.000104674
7.36625e-05
5.82219e-05
4.62256e-05
4.85831e-05
5.22988e-05
5.34391e-05
5.26995e-05
5.16642e-05
5.21878e-05
5.48537e-05
5.71012e-05
5.69274e-05
5.38777e-05
5.10334e-05
5.12171e-05
5.32561e-05
5.67055e-05
6.26961e-05
6.99529e-05
7.588e-05
8.04882e-05
8.52243e-05
8.88465e-05
8.39093e-05
6.9676e-05
5.86393e-05
5.8516e-05
6.6493e-05
7.5447e-05
8.2685e-05
8.82504e-05
9.12891e-05
9.12799e-05
8.97848e-05
8.8942e-05
8.98978e-05
9.39826e-05
0.000102205
0.000110145
0.000103892
7.89877e-05
5.46714e-05
4.43685e-05
4.03531e-05
4.37077e-05
4.62951e-05
4.73102e-05
4.80651e-05
4.85616e-05
4.90622e-05
4.94462e-05
4.93427e-05
4.82356e-05
4.59807e-05
4.43895e-05
4.51776e-05
4.82923e-05
5.32683e-05
5.72193e-05
5.83504e-05
5.94157e-05
6.26367e-05
6.77252e-05
6.76662e-05
5.61596e-05
4.36225e-05
3.94163e-05
4.07066e-05
4.33365e-05
4.62994e-05
5.11641e-05
5.74498e-05
6.275e-05
6.60384e-05
6.79455e-05
6.90768e-05
7.09199e-05
7.81586e-05
9.22538e-05
0.000100042
8.79891e-05
6.25063e-05
5.36731e-05
3.99745e-05
3.85997e-05
4.14146e-05
4.35588e-05
4.59973e-05
4.89262e-05
5.03895e-05
4.90902e-05
4.65158e-05
4.49885e-05
4.55383e-05
4.64469e-05
4.80191e-05
5.06879e-05
5.27414e-05
5.07567e-05
4.56837e-05
4.29561e-05
4.52833e-05
5.05856e-05
5.38303e-05
4.66234e-05
3.49578e-05
2.88796e-05
2.19933e-05
1.55006e-05
1.51936e-05
1.83369e-05
2.32411e-05
3.03908e-05
3.82985e-05
4.56986e-05
5.15502e-05
5.51174e-05
5.97968e-05
7.25655e-05
8.96876e-05
9.36595e-05
7.72201e-05
6.85128e-05
4.74894e-05
3.73476e-05
3.64931e-05
3.76344e-05
3.98873e-05
4.44317e-05
5.01752e-05
5.14619e-05
4.68352e-05
4.13903e-05
4.1318e-05
4.70276e-05
5.28224e-05
5.58951e-05
5.32908e-05
4.43959e-05
3.47134e-05
2.99823e-05
3.17402e-05
3.67724e-05
4.10601e-05
3.77801e-05
2.79681e-05
2.07621e-05
1.26686e-05
1.43326e-05
2.15081e-05
2.50894e-05
2.52293e-05
2.34962e-05
2.1869e-05
2.33627e-05
2.99835e-05
3.8393e-05
4.46795e-05
5.31955e-05
7.03779e-05
8.66835e-05
8.67077e-05
7.90474e-05
5.94017e-05
4.11022e-05
3.40346e-05
3.24177e-05
3.29632e-05
3.6885e-05
4.47636e-05
5.23203e-05
5.08124e-05
4.1886e-05
3.48771e-05
3.95568e-05
4.99562e-05
5.43444e-05
4.81709e-05
3.51999e-05
2.47681e-05
2.20588e-05
2.43178e-05
2.84981e-05
3.26603e-05
3.1901e-05
2.29864e-05
1.40291e-05
1.48884e-05
2.26568e-05
2.77295e-05
3.00653e-05
3.12736e-05
3.14061e-05
2.93219e-05
2.41294e-05
1.80363e-05
2.06684e-05
3.03075e-05
3.871e-05
5.03277e-05
6.82066e-05
8.21757e-05
7.73027e-05
6.91138e-05
4.85899e-05
3.61264e-05
3.23995e-05
3.17385e-05
3.38606e-05
3.86312e-05
4.72839e-05
5.38353e-05
4.78231e-05
3.51166e-05
2.90784e-05
3.58988e-05
4.03293e-05
3.33608e-05
2.08771e-05
1.42494e-05
1.69951e-05
2.1098e-05
2.45357e-05
2.80256e-05
2.89507e-05
2.03286e-05
8.39343e-06
1.66259e-05
2.44384e-05
2.68199e-05
2.74197e-05
2.84112e-05
2.96323e-05
2.95874e-05
2.66656e-05
2.02124e-05
1.25069e-05
1.56731e-05
2.56881e-05
3.46694e-05
4.73428e-05
6.52357e-05
6.25263e-05
6.99845e-05
5.74861e-05
4.33201e-05
3.88304e-05
3.88397e-05
3.8402e-05
3.69285e-05
3.8934e-05
4.76494e-05
5.16236e-05
4.09599e-05
2.80693e-05
2.5041e-05
2.47764e-05
1.88947e-05
1.04069e-05
8.73153e-06
1.38625e-05
1.79049e-05
2.13105e-05
2.48848e-05
2.67607e-05
1.95145e-05
8.33778e-06
1.70519e-05
2.06522e-05
1.95595e-05
1.94891e-05
2.15032e-05
2.41447e-05
2.57299e-05
2.48191e-05
2.05563e-05
1.33153e-05
7.26196e-06
1.29772e-05
2.08537e-05
2.88771e-05
4.30649e-05
4.20032e-05
6.16001e-05
6.32535e-05
5.34417e-05
4.88072e-05
4.64493e-05
4.15886e-05
3.55559e-05
3.22902e-05
3.57925e-05
4.38634e-05
4.24058e-05
2.84952e-05
2.27764e-05
2.35244e-05
1.97019e-05
1.32034e-05
1.01206e-05
1.06133e-05
1.25321e-05
1.65707e-05
2.1344e-05
2.41181e-05
2.01837e-05
1.29898e-05
1.24623e-05
1.16505e-05
1.38298e-05
1.69333e-05
1.90512e-05
2.07437e-05
2.23189e-05
2.2858e-05
2.04544e-05
1.45029e-05
7.26621e-06
6.63321e-06
1.17468e-05
1.60657e-05
2.37019e-05
2.65045e-05
4.99701e-05
6.43921e-05
6.24036e-05
5.60387e-05
4.85426e-05
3.93314e-05
3.11048e-05
2.67578e-05
2.80008e-05
3.28615e-05
3.48894e-05
2.51336e-05
1.46743e-05
1.96298e-05
2.0108e-05
1.6526e-05
1.42534e-05
1.30487e-05
1.18445e-05
1.33028e-05
1.8068e-05
2.24474e-05
2.20911e-05
1.60118e-05
1.14972e-05
1.45942e-05
1.76721e-05
1.89974e-05
2.01448e-05
2.11871e-05
2.19236e-05
2.26358e-05
2.1683e-05
1.65758e-05
9.02353e-06
6.78424e-06
1.00942e-05
1.18929e-05
1.47009e-05
1.95829e-05
3.77517e-05
5.77618e-05
6.47866e-05
5.93224e-05
4.80797e-05
3.64775e-05
2.80371e-05
2.34567e-05
2.38142e-05
2.77127e-05
2.88287e-05
2.19376e-05
1.02373e-05
1.58985e-05
2.13262e-05
2.26854e-05
2.44381e-05
2.49697e-05
2.08766e-05
1.50488e-05
1.61422e-05
2.14903e-05
2.2723e-05
1.90073e-05
1.54182e-05
1.39594e-05
1.54068e-05
1.93098e-05
2.30525e-05
2.45185e-05
2.37972e-05
2.32848e-05
2.36413e-05
2.04153e-05
1.21951e-05
6.63366e-06
1.11159e-05
1.31326e-05
1.31286e-05
1.77379e-05
2.7524e-05
4.05943e-05
4.84055e-05
4.52482e-05
3.496e-05
2.52006e-05
2.03852e-05
1.90802e-05
2.03256e-05
2.49556e-05
2.76544e-05
2.25941e-05
1.19242e-05
1.47065e-05
2.41143e-05
3.10635e-05
3.60121e-05
3.64565e-05
2.96697e-05
1.88896e-05
1.46637e-05
1.81101e-05
1.87705e-05
1.32319e-05
8.42718e-06
1.15518e-05
1.81665e-05
2.44236e-05
2.72984e-05
2.65746e-05
2.41247e-05
2.26926e-05
2.39782e-05
2.39309e-05
1.75159e-05
7.09602e-06
6.74206e-06
1.22947e-05
1.41669e-05
1.70831e-05
2.11611e-05
2.35171e-05
2.20485e-05
1.78733e-05
1.29056e-05
9.45229e-06
1.03459e-05
1.30752e-05
1.53217e-05
1.96852e-05
2.42251e-05
2.26184e-05
1.43562e-05
1.44974e-05
2.62726e-05
3.63286e-05
4.12312e-05
3.99529e-05
3.23696e-05
2.13614e-05
1.66516e-05
1.81713e-05
1.66183e-05
1.18209e-05
1.17555e-05
2.14467e-05
3.05671e-05
3.2793e-05
2.92904e-05
2.44362e-05
2.11881e-05
2.0178e-05
2.17031e-05
2.41224e-05
2.1926e-05
1.33889e-05
3.70102e-06
7.70269e-06
1.3217e-05
1.70514e-05
1.79745e-05
1.53666e-05
1.07203e-05
7.66994e-06
6.7593e-06
6.38482e-06
7.78941e-06
1.04143e-05
1.24698e-05
1.66537e-05
2.15969e-05
2.09536e-05
1.4442e-05
1.48526e-05
2.55855e-05
3.37281e-05
3.62556e-05
3.39419e-05
2.78465e-05
1.93961e-05
1.6683e-05
2.26724e-05
2.51373e-05
2.57323e-05
3.26603e-05
4.07979e-05
4.11791e-05
3.37768e-05
2.48419e-05
2.13547e-05
2.11954e-05
1.94791e-05
1.80946e-05
2.04525e-05
2.28786e-05
1.95735e-05
1.19815e-05
8.2518e-06
1.27363e-05
1.69619e-05
1.73398e-05
1.44609e-05
1.11025e-05
9.57955e-06
8.87633e-06
7.69697e-06
7.42547e-06
9.36262e-06
1.17297e-05
1.67353e-05
2.32373e-05
2.29085e-05
1.52993e-05
1.42747e-05
2.37241e-05
2.96308e-05
2.97824e-05
2.64809e-05
2.1526e-05
1.49774e-05
1.07412e-05
1.78952e-05
2.78962e-05
3.65211e-05
4.23417e-05
4.0771e-05
3.15331e-05
2.28681e-05
2.08945e-05
1.98378e-05
1.85364e-05
1.76956e-05
1.49114e-05
1.4578e-05
2.03154e-05
2.4072e-05
2.17194e-05
1.64599e-05
1.47899e-05
1.8996e-05
1.68047e-05
1.40304e-05
1.04052e-05
8.82452e-06
8.7647e-06
7.24824e-06
5.93354e-06
7.18351e-06
1.0742e-05
1.72311e-05
2.58119e-05
2.88765e-05
2.34253e-05
1.92586e-05
2.25078e-05
2.43083e-05
2.26172e-05
2.03298e-05
1.78293e-05
1.3828e-05
1.1803e-05
1.80388e-05
2.66151e-05
3.07032e-05
2.60474e-05
1.31328e-05
1.10263e-05
2.04964e-05
2.05451e-05
1.60092e-05
1.54743e-05
1.54022e-05
1.2943e-05
1.02893e-05
1.42615e-05
2.29165e-05
2.79494e-05
2.7117e-05
2.28168e-05
2.17084e-05
1.67872e-05
1.20466e-05
1.16276e-05
1.42241e-05
1.42195e-05
1.29395e-05
1.32839e-05
1.28865e-05
1.22767e-05
1.71803e-05
2.49015e-05
2.99315e-05
2.9867e-05
2.61498e-05
2.03383e-05
1.50157e-05
1.35062e-05
1.38008e-05
1.2915e-05
1.2462e-05
1.46946e-05
1.88514e-05
2.09639e-05
1.78697e-05
1.48333e-05
2.14474e-05
2.55353e-05
2.01803e-05
1.00246e-05
9.83755e-06
2.0655e-05
2.75596e-05
2.41055e-05
1.59985e-05
1.175e-05
1.52243e-05
2.17548e-05
2.55522e-05
2.51805e-05
1.88667e-05
1.5667e-05
9.91455e-06
7.34513e-06
9.24669e-06
9.80677e-06
1.05042e-05
1.34504e-05
1.69886e-05
1.93715e-05
2.19344e-05
2.53511e-05
2.63747e-05
2.38874e-05
1.87454e-05
1.23546e-05
8.70752e-06
8.89395e-06
9.29706e-06
9.40186e-06
1.03514e-05
1.1743e-05
1.31316e-05
1.47609e-05
1.81646e-05
2.2306e-05
2.23433e-05
1.70489e-05
1.26617e-05
1.37249e-05
1.40837e-05
1.64187e-05
2.91503e-05
3.78159e-05
3.31329e-05
2.22938e-05
1.49046e-05
1.44761e-05
1.70202e-05
1.894e-05
1.45295e-05
1.41399e-05
1.33093e-05
1.24656e-05
1.09296e-05
7.76907e-06
5.31735e-06
8.51706e-06
1.4783e-05
2.14708e-05
2.63142e-05
2.79458e-05
2.60433e-05
2.06978e-05
1.39092e-05
9.59833e-06
1.00999e-05
1.28539e-05
1.48775e-05
1.52802e-05
1.55133e-05
1.67626e-05
1.82307e-05
1.91138e-05
1.87801e-05
1.65535e-05
1.39751e-05
1.55856e-05
2.0576e-05
2.40009e-05
2.22609e-05
1.47151e-05
1.71764e-05
3.41829e-05
4.32652e-05
3.96756e-05
3.0879e-05
2.37753e-05
1.90129e-05
1.57622e-05
2.01428e-05
2.02637e-05
1.90205e-05
1.66757e-05
1.39575e-05
1.08151e-05
8.74333e-06
1.12198e-05
1.70889e-05
2.25471e-05
2.5079e-05
2.34565e-05
1.88627e-05
1.42965e-05
1.23528e-05
1.36237e-05
1.56996e-05
1.76565e-05
1.90311e-05
1.86943e-05
1.71183e-05
1.62003e-05
1.63564e-05
1.67411e-05
1.79923e-05
2.1508e-05
2.66778e-05
3.11521e-05
3.27027e-05
3.03752e-05
2.43267e-05
1.55325e-05
1.12091e-05
2.2338e-05
3.42377e-05
3.92703e-05
3.69818e-05
3.08951e-05
2.48173e-05
2.09496e-05
2.84832e-05
3.17326e-05
3.39424e-05
3.23519e-05
2.66724e-05
1.92203e-05
1.38933e-05
1.42765e-05
1.85389e-05
2.18303e-05
2.09313e-05
1.70162e-05
1.33159e-05
1.02002e-05
8.93948e-06
1.24958e-05
1.59218e-05
1.78478e-05
2.00657e-05
2.20038e-05
2.22804e-05
2.187e-05
2.29247e-05
2.49554e-05
2.62793e-05
2.64138e-05
2.55976e-05
2.39837e-05
2.17844e-05
1.859e-05
1.47234e-05
1.24649e-05
1.30645e-05
1.57064e-05
1.99675e-05
2.36578e-05
2.58168e-05
2.66903e-05
2.6712e-05
2.68394e-05
1.37668e-05
1.85773e-05
2.4068e-05
2.73834e-05
2.68808e-05
2.28781e-05
1.80897e-05
1.69371e-05
2.08917e-05
2.67071e-05
3.02392e-05
2.88404e-05
2.41916e-05
2.03438e-05
1.96325e-05
2.14177e-05
2.29358e-05
2.26456e-05
2.22697e-05
2.37322e-05
2.60412e-05
2.77349e-05
2.81506e-05
2.63317e-05
2.17034e-05
1.53177e-05
9.29459e-06
5.77498e-06
5.15916e-06
4.29501e-06
4.07974e-06
1.03072e-05
1.67876e-05
1.87966e-05
1.68437e-05
1.5122e-05
1.53132e-05
1.55014e-05
1.42563e-05
1.26118e-05
1.5255e-05
1.17739e-05
1.13024e-05
1.13572e-05
1.1475e-05
1.30584e-05
1.45207e-05
1.43937e-05
1.40168e-05
1.65074e-05
2.3116e-05
3.1531e-05
3.92229e-05
4.52202e-05
4.88941e-05
4.90743e-05
4.48726e-05
3.68939e-05
2.75394e-05
2.04971e-05
1.80571e-05
1.73737e-05
1.5067e-05
1.2276e-05
1.23348e-05
1.37917e-05
1.32979e-05
1.03833e-05
7.00362e-06
5.96043e-06
7.9013e-06
1.18695e-05
1.70411e-05
2.13274e-05
2.28574e-05
2.24531e-05
2.2319e-05
2.28742e-05
2.25269e-05
1.98352e-05
8.46834e-05
8.46776e-05
8.45526e-05
8.86638e-05
9.7246e-05
0.000106851
0.000114395
0.000118934
0.000121045
0.000122649
0.000125875
0.000131946
0.000140886
0.000151774
0.00016324
0.000173831
0.000182678
0.000189826
0.000195309
0.000197162
0.000190537
0.000173022
0.000152152
0.000140161
0.000140072
0.000146859
0.000154651
0.000160437
0.000165566
0.000172918
0.000182927
0.000192683
0.0001979
0.000195142
0.00018272
0.000160205
0.000130584
0.00010333
8.77255e-05
8.37514e-05
7.25467e-05
7.35843e-05
7.53422e-05
7.88721e-05
8.4705e-05
9.20065e-05
9.9042e-05
0.000104588
0.000108307
0.000110283
0.000111328
0.000113402
0.000118377
0.00012645
0.000136315
0.000146012
0.000154031
0.000160411
0.000166183
0.000170898
0.000170563
0.000159587
0.000138983
0.00012218
0.000120672
0.000129889
0.000139687
0.000145458
0.000148264
0.000151514
0.000157439
0.000165203
0.000171744
0.000173779
0.000169093
0.000156151
0.000133745
0.000106243
8.41556e-05
7.40236e-05
5.52064e-05
5.69581e-05
5.87444e-05
5.95529e-05
6.10386e-05
6.45261e-05
6.98076e-05
7.57694e-05
8.14311e-05
8.5172e-05
8.60877e-05
8.50658e-05
8.51381e-05
8.84497e-05
9.46448e-05
0.000101491
0.000106663
0.0001099
0.000113447
0.000119513
0.000126347
0.000126781
0.000113869
9.50436e-05
8.79824e-05
9.52184e-05
0.000105812
0.000112096
0.000113305
0.000112474
0.000113388
0.000117742
0.000124488
0.000130982
0.00013447
0.000132941
0.000123547
0.00010421
7.93057e-05
6.06506e-05
4.1523e-05
4.08068e-05
4.32838e-05
4.38443e-05
4.34412e-05
4.39228e-05
4.64009e-05
5.09884e-05
5.72731e-05
6.32747e-05
6.68103e-05
6.69027e-05
6.52139e-05
6.48695e-05
6.70124e-05
6.98667e-05
7.07841e-05
6.91557e-05
6.80078e-05
7.20101e-05
8.23843e-05
9.23637e-05
8.9861e-05
7.36063e-05
6.15503e-05
6.38239e-05
7.329e-05
8.05209e-05
8.24324e-05
8.06978e-05
7.89096e-05
8.00428e-05
8.496e-05
9.25052e-05
0.000100348
0.000106176
0.000107504
9.96898e-05
8.03036e-05
5.58204e-05
3.94187e-05
3.02088e-05
3.26022e-05
3.50197e-05
3.54358e-05
3.51358e-05
3.56547e-05
3.80621e-05
4.31754e-05
5.05243e-05
5.71316e-05
6.03945e-05
6.03834e-05
5.90239e-05
5.77246e-05
5.56912e-05
5.16808e-05
4.58209e-05
4.09986e-05
4.12311e-05
4.92889e-05
6.33883e-05
7.09688e-05
6.13126e-05
4.73104e-05
4.46846e-05
5.03936e-05
5.6806e-05
5.98279e-05
5.93848e-05
5.74981e-05
5.70524e-05
6.00214e-05
6.67037e-05
7.59526e-05
8.62729e-05
9.53814e-05
9.77939e-05
8.81851e-05
6.46248e-05
4.92693e-05
2.65669e-05
2.45106e-05
2.89755e-05
3.1183e-05
3.12728e-05
3.10114e-05
3.17915e-05
3.43479e-05
4.01967e-05
4.84715e-05
5.49717e-05
5.77224e-05
5.69299e-05
5.31051e-05
4.66933e-05
3.9044e-05
3.23113e-05
2.81609e-05
2.76295e-05
3.01514e-05
3.78101e-05
4.82038e-05
4.71679e-05
3.66819e-05
3.21204e-05
3.21104e-05
3.34794e-05
3.52761e-05
3.62708e-05
3.63834e-05
3.68154e-05
3.93298e-05
4.51964e-05
5.43978e-05
6.62773e-05
7.98733e-05
9.1282e-05
9.38886e-05
7.96236e-05
6.55038e-05
3.22497e-05
1.83644e-05
2.25407e-05
2.67093e-05
2.7493e-05
2.68877e-05
2.67065e-05
2.72445e-05
2.86345e-05
3.31726e-05
4.11383e-05
4.79663e-05
5.0309e-05
4.69715e-05
3.91677e-05
3.07886e-05
2.54666e-05
2.38833e-05
2.46236e-05
2.46295e-05
2.37408e-05
2.71275e-05
2.93092e-05
2.51368e-05
2.21656e-05
1.88425e-05
1.60376e-05
1.65843e-05
1.84969e-05
2.04364e-05
2.18638e-05
2.29535e-05
2.55636e-05
3.2553e-05
4.35734e-05
5.75005e-05
7.38356e-05
8.77953e-05
8.89593e-05
7.82629e-05
4.55265e-05
1.80057e-05
1.53669e-05
2.0348e-05
2.19794e-05
2.12135e-05
2.03387e-05
2.04439e-05
2.15676e-05
2.18099e-05
2.26204e-05
2.86605e-05
3.54183e-05
3.67037e-05
3.25112e-05
2.7174e-05
2.40041e-05
2.42748e-05
2.57908e-05
2.46747e-05
2.13251e-05
2.05265e-05
1.9542e-05
1.69422e-05
1.57413e-05
1.54763e-05
1.8616e-05
2.30172e-05
2.64317e-05
2.8464e-05
2.88128e-05
2.68403e-05
2.23232e-05
1.84694e-05
2.31593e-05
3.43291e-05
4.94357e-05
6.8515e-05
8.44615e-05
7.86568e-05
5.89357e-05
2.52559e-05
9.92793e-06
1.2036e-05
1.38603e-05
1.4276e-05
1.46795e-05
1.5563e-05
1.72598e-05
2.16098e-05
2.40148e-05
2.23391e-05
2.16849e-05
2.16562e-05
2.15301e-05
2.21899e-05
2.28413e-05
2.43483e-05
2.58309e-05
2.46498e-05
2.21461e-05
2.14784e-05
1.8326e-05
1.23686e-05
1.07116e-05
1.52986e-05
2.15491e-05
2.72624e-05
3.15687e-05
3.34567e-05
3.28206e-05
3.02663e-05
2.57453e-05
1.87831e-05
1.25011e-05
1.61068e-05
2.62404e-05
4.25474e-05
6.57803e-05
6.66184e-05
6.49037e-05
3.56294e-05
1.34016e-05
1.2449e-05
1.64986e-05
2.03827e-05
2.26854e-05
2.2542e-05
1.93515e-05
1.58197e-05
1.94655e-05
2.2616e-05
2.04597e-05
1.51508e-05
1.20334e-05
1.46177e-05
1.83626e-05
2.14702e-05
2.33741e-05
2.30985e-05
2.27828e-05
2.3493e-05
2.02636e-05
1.15338e-05
8.86786e-06
1.67439e-05
2.34654e-05
2.75871e-05
2.92543e-05
2.85679e-05
2.65753e-05
2.41132e-05
2.10921e-05
1.6636e-05
1.05842e-05
6.82764e-06
1.10183e-05
2.08056e-05
4.2175e-05
5.21048e-05
6.47979e-05
4.73602e-05
2.6627e-05
2.46364e-05
2.94986e-05
3.40381e-05
3.57038e-05
3.31628e-05
2.69468e-05
1.87788e-05
1.55947e-05
2.02325e-05
2.04966e-05
1.56977e-05
1.12543e-05
1.06013e-05
1.35123e-05
1.66955e-05
1.83172e-05
2.00168e-05
2.29351e-05
2.54616e-05
2.41857e-05
1.79981e-05
1.33882e-05
1.5902e-05
1.8635e-05
1.97397e-05
2.10443e-05
2.21243e-05
2.1171e-05
1.86614e-05
1.61235e-05
1.28997e-05
8.09658e-06
4.20408e-06
6.15079e-06
1.07395e-05
2.53549e-05
4.10153e-05
6.34891e-05
6.21369e-05
5.02218e-05
4.67093e-05
4.59212e-05
4.3845e-05