/*--------------------------------*- C++ -*----------------------------------*\
| =========                 |                                                 |
| \\      /  F ield         | OpenFOAM: The Open Source CFD Toolbox           |
|  \\    /   O peration     | Version:  5.0                                   |
|   \\  /    A nd           | Web:      www.OpenFOAM.org                      |
|    \\/     M anipulation  |                                                 |
\*---------------------------------------------------------------------------*/
FoamFile
{
    version     2.0;
    format      ascii;
    class       volScalarField;
    location    "50.4676134421789371";
    object      Ctke;
}
// * * * * * * * * * * * * * * * * * * * * * * * * * * * * * * * * * * * * * //

dimensions      [0 2 -3 0 0 0 0];

internalField   nonuniform List<scalar> 
60000
(
-9.76526e-10
7.8254e-10
1.43442e-10
-1.28262e-09
-7.34773e-10
5.96778e-12
1.64086e-10
1.39e-09
2.31713e-09
4.88287e-10
-2.44392e-09
-1.86245e-09
1.74432e-09
3.94977e-09
4.08239e-09
3.01372e-09
1.07823e-09
7.37879e-10
3.81515e-09
9.63365e-09
1.84475e-08
1.85783e-08
1.48098e-08
2.18665e-08
2.32789e-08
-1.1646e-08
-7.25296e-08
-9.48248e-08
-5.46517e-08
-1.02293e-08
1.10669e-08
1.23563e-08
-7.20131e-10
-1.01066e-08
-6.6805e-09
-9.10565e-09
-3.13724e-09
5.67637e-09
2.2602e-09
-1.77547e-09
-6.74927e-08
-2.33033e-08
5.58758e-09
3.00787e-09
5.13105e-11
-4.40962e-09
-1.01628e-08
1.81093e-08
5.51444e-08
2.49065e-08
-6.69442e-08
-9.76309e-08
-2.8234e-08
3.72937e-08
6.15708e-08
4.98946e-08
5.65219e-09
-3.20729e-08
-4.13741e-08
-1.73224e-09
1.47537e-07
2.94663e-07
3.06534e-07
3.31011e-07
3.82664e-07
1.64741e-07
-4.54494e-07
-1.03063e-06
-9.25168e-07
-3.45798e-07
6.29191e-08
1.90259e-07
8.67228e-08
-1.41376e-07
-2.1725e-07
-1.02449e-07
-4.51312e-08
6.74521e-08
5.49176e-08
-4.40292e-08
-1.20906e-07
-1.11624e-07
-3.14478e-08
1.19331e-08
2.2472e-08
7.88095e-09
-2.06453e-08
6.67377e-09
1.02237e-07
1.06012e-07
-5.6437e-08
-1.85934e-07
-1.16183e-07
2.39401e-08
1.013e-07
1.08894e-07
3.69094e-08
-4.15803e-08
-5.55517e-08
-9.94543e-10
2.24896e-07
4.98941e-07
4.16268e-07
1.81154e-07
2.83668e-07
3.97049e-07
1.14901e-07
-4.48968e-07
-6.78756e-07
-3.74285e-07
-1.41925e-08
1.74612e-07
2.17323e-07
5.57094e-08
-1.75907e-07
-1.66264e-07
-7.63766e-08
2.99948e-08
1.56376e-07
3.77789e-08
-4.45581e-08
-1.17003e-07
-4.34443e-08
1.41793e-08
3.3393e-08
2.39212e-08
-2.61565e-08
-4.42905e-08
6.38363e-08
1.54131e-07
9.26841e-09
-1.79533e-07
-1.22434e-07
1.76487e-08
7.84273e-08
1.03533e-07
3.34388e-08
-4.32168e-08
-2.61318e-08
-1.37888e-08
1.86196e-07
5.42207e-07
4.46603e-07
-1.18739e-07
-1.46828e-07
1.05995e-07
1.50703e-07
-4.0113e-08
-1.40726e-07
-1.51554e-08
3.30165e-08
-2.7267e-08
9.23792e-09
6.53406e-08
1.23279e-08
-8.21081e-09
-5.45682e-08
-1.65072e-07
2.45178e-08
1.27101e-07
8.5143e-08
-1.15848e-07
-9.48809e-08
6.82436e-09
5.21865e-08
5.68611e-08
-7.08948e-09
-9.80482e-08
-4.93069e-08
1.60918e-07
1.45381e-07
-1.62265e-07
-2.03234e-07
-1.1861e-08
6.5251e-08
1.05723e-07
6.81943e-09
-7.46797e-08
1.18569e-07
9.585e-09
-1.03922e-08
5.08493e-07
6.71018e-07
-1.46134e-07
-4.9432e-07
-2.37654e-07
-6.43089e-08
-9.21909e-08
-1.30952e-07
4.47832e-08
1.58675e-07
-1.57486e-08
-1.51002e-07
-9.58276e-08
1.30763e-09
5.87448e-08
-8.86225e-09
-3.00648e-07
-2.79312e-07
7.2477e-08
1.75775e-07
1.78671e-08
-1.68133e-07
-6.04466e-08
6.34833e-08
1.05636e-07
8.4154e-08
-4.1045e-08
-1.47839e-07
1.02603e-08
2.39547e-07
1.95415e-08
-2.95089e-07
-1.45944e-07
1.61595e-07
2.92821e-07
-9.01388e-09
-2.86977e-07
2.78114e-07
4.52693e-07
-1.86065e-07
2.91888e-07
8.35319e-07
-1.31814e-07
-8.33357e-07
-4.48687e-07
-1.12225e-07
-1.14868e-08
-6.4912e-08
-1.3992e-07
-1.20052e-08
1.40537e-07
1.23471e-07
2.7005e-08
-4.54797e-08
-4.50165e-08
-3.9877e-08
-2.1287e-07
-3.77688e-07
-1.3642e-07
-6.59482e-11
1.60264e-07
-6.88495e-08
-1.45029e-07
-9.85327e-09
9.04999e-08
1.54071e-07
1.42819e-07
-1.15355e-08
-1.19823e-07
4.90635e-08
1.20268e-07
-2.00031e-07
-2.28093e-07
3.2865e-07
6.29243e-07
-5.86428e-08
-6.57208e-07
1.55878e-07
1.25867e-06
4.14947e-08
-2.93614e-07
4.99041e-07
-2.04948e-07
-8.91134e-07
-4.7666e-07
-1.68254e-07
-1.427e-08
5.59062e-08
-4.33432e-09
-1.56191e-07
-1.47698e-07
1.15499e-07
3.65321e-07
2.48106e-07
-8.30027e-08
-2.094e-07
-1.89086e-07
-2.70437e-07
-2.97323e-07
-2.36113e-07
2.81458e-08
4.4257e-08
-7.965e-08
-5.18297e-08
-1.61044e-09
6.54429e-08
2.02257e-07
3.01234e-07
1.97271e-07
-7.73092e-08
-1.64192e-07
-2.13767e-07
-1.08402e-07
6.61659e-07
7.9825e-07
-3.13036e-07
-9.37626e-07
-1.76962e-07
1.69266e-06
9.75424e-07
-7.73944e-07
-3.37911e-07
-2.28259e-07
-5.63429e-07
-4.24974e-07
-2.37024e-07
-6.61231e-08
4.00364e-08
1.14788e-07
1.02966e-07
-1.17435e-07
-2.8768e-07
7.06444e-08
5.32699e-07
2.8962e-07
-2.1648e-07
-2.9202e-07
-1.81135e-07
-2.51287e-07
-2.79142e-07
-1.75457e-07
-4.22124e-09
-5.37259e-08
-2.74464e-08
2.72739e-08
-9.33955e-09
-3.59525e-09
2.36171e-07
7.24862e-07
5.21356e-07
-4.31455e-07
-5.78234e-07
7.84144e-08
9.22484e-07
5.54315e-07
-6.0105e-07
-9.25111e-07
-3.29518e-07
1.28203e-06
1.85698e-06
-4.37318e-07
-1.02185e-06
-3.0055e-07
-2.13828e-07
-3.33965e-07
-2.57285e-07
-8.7591e-08
2.0093e-08
1.13078e-07
2.1362e-07
1.53877e-07
-2.01908e-07
-3.94614e-07
8.36401e-08
5.00178e-07
1.66388e-07
-2.30379e-07
-1.90986e-07
-1.36089e-07
-1.69246e-07
-2.85177e-07
-1.12435e-07
-8.37606e-08
-6.96717e-08
2.22035e-08
5.44316e-08
-5.59641e-09
-6.61324e-08
5.12622e-07
1.35865e-06
9.6144e-08
-1.01218e-06
-2.49159e-08
8.3824e-07
1.93772e-07
-6.51239e-07
-7.64623e-07
-2.71675e-07
6.45072e-07
1.67291e-06
3.33089e-07
-9.38486e-07
-4.39363e-07
-1.12191e-07
-2.58795e-07
-2.3169e-07
-7.98384e-08
2.8387e-08
1.29263e-07
2.50414e-07
2.19938e-07
-8.02328e-08
-4.02507e-07
-2.9601e-07
1.72603e-07
3.40015e-07
6.65522e-08
-1.09603e-07
-6.09337e-08
-4.84943e-08
-3.19935e-07
-2.02301e-07
-3.56505e-08
-1.04132e-07
-7.09561e-08
5.7053e-08
9.33549e-08
-4.35856e-08
2.71605e-08
1.17738e-06
1.02159e-06
-8.64293e-07
-5.41328e-07
5.69173e-07
2.20232e-07
-5.12355e-07
-7.00153e-07
-2.60682e-07
3.9432e-07
9.09713e-07
5.43859e-07
-3.46708e-07
-4.28717e-07
-2.64333e-07
-2.69879e-07
-1.96686e-07
-4.69237e-08
5.44993e-08
1.68758e-07
3.5267e-07
3.13625e-07
-1.18361e-07
-5.00133e-07
-3.96678e-07
-8.34213e-10
2.06226e-07
1.16173e-07
1.40115e-08
4.80242e-08
-2.16735e-08
-3.07784e-07
-1.55599e-07
7.57065e-08
-9.631e-08
-1.34395e-07
9.6711e-09
9.84496e-08
2.2296e-08
-9.13931e-08
5.24042e-07
1.20635e-06
-2.18728e-07
-8.15842e-07
2.11617e-07
3.3621e-07
-3.67765e-07
-6.19358e-07
-2.92135e-07
2.87126e-07
5.37174e-07
2.36421e-07
-1.85787e-07
-2.32523e-07
-2.17905e-07
-2.91865e-07
-2.04613e-07
-1.2312e-08
7.74282e-08
1.73484e-07
4.43202e-07
5.51784e-07
1.1333e-08
-6.649e-07
-6.08141e-07
-9.7762e-08
1.30332e-07
5.24917e-08
2.80135e-08
1.07919e-07
-2.1351e-08
-2.7066e-07
-8.90617e-08
1.26752e-07
-4.70856e-09
-6.63647e-08
-6.29984e-08
-7.82075e-09
3.6753e-08
-4.98194e-08
2.12092e-07
9.24609e-07
2.38164e-07
-6.89117e-07
-1.41373e-07
2.13908e-07
-1.20931e-07
-3.731e-07
-3.20719e-07
1.83545e-07
4.5734e-07
-5.30477e-08
-4.43225e-07
-2.41719e-08
9.43772e-08
-2.60697e-07
-2.3139e-07
6.58944e-09
8.42118e-08
1.09784e-07
3.67228e-07
7.53632e-07
4.89671e-07
-5.35348e-07
-9.40975e-07
-3.86215e-07
6.25684e-08
6.62695e-08
2.96618e-08
1.10394e-07
1.30949e-08
-1.8802e-07
-1.27506e-07
7.0179e-08
1.22528e-07
7.30383e-08
-8.33826e-08
-1.45285e-07
1.53586e-08
4.03092e-08
6.85159e-08
7.04413e-07
5.67085e-07
-4.96853e-07
-4.83781e-07
2.63876e-08
2.28882e-07
-5.86993e-08
-3.54123e-07
1.57659e-07
4.43657e-07
-2.37374e-07
-5.72112e-07
5.24648e-08
2.50726e-07
-1.91077e-07
-2.54434e-07
-3.56062e-09
7.72133e-08
3.45612e-08
1.42124e-07
6.0545e-07
1.01405e-06
2.29059e-07
-1.00466e-06
-9.15849e-07
-1.7881e-07
9.19252e-08
6.23724e-08
8.19803e-08
-1.00256e-09
-1.04528e-07
-1.00634e-07
2.11701e-08
8.94822e-08
7.04603e-08
-2.29498e-08
-1.26495e-07
-4.98833e-08
6.86727e-08
8.16868e-08
5.44569e-07
7.58567e-07
-2.42136e-07
-7.23906e-07
-4.16246e-08
5.00299e-07
3.84177e-08
-4.55435e-07
1.13303e-07
6.67732e-07
-1.02706e-08
-5.39777e-07
-1.42985e-07
-7.31711e-09
-2.11075e-07
-1.75892e-07
-1.87936e-08
4.81379e-08
4.22986e-08
1.37385e-08
2.16301e-07
9.69972e-07
1.15771e-06
-3.0997e-07
-1.31375e-06
-7.02401e-07
-1.76479e-08
8.26218e-08
3.92362e-08
-5.55496e-08
-8.70872e-08
-1.50997e-08
8.21117e-08
2.83307e-08
-7.68681e-08
-6.58361e-08
-2.59181e-08
-1.87958e-08
3.8207e-08
1.42837e-07
5.221e-07
7.10107e-07
-2.09405e-07
-7.32325e-07
8.15596e-08
4.67323e-07
-1.69666e-07
-4.90479e-07
5.4345e-08
6.0611e-07
1.66397e-07
-4.53906e-07
-2.97054e-07
1.84781e-08
-6.00925e-08
-1.81057e-07
-9.37672e-08
5.14237e-08
1.04253e-07
2.3795e-08
-2.64285e-08
4.94162e-07
1.39361e-06
7.88148e-07
-9.97207e-07
-1.3284e-06
-4.10922e-07
1.00521e-07
5.02224e-08
-5.11493e-08
-5.77336e-08
8.35581e-08
1.62089e-07
1.55654e-08
-1.76201e-07
-1.57609e-07
-3.8069e-08
-1.4707e-09
4.05857e-08
2.1155e-07
5.12798e-07
4.68318e-07
-3.68638e-07
-5.69021e-07
2.61999e-07
3.28406e-07
-3.10609e-07
-4.30575e-07
5.46716e-08
4.52057e-07
9.552e-08
-4.42034e-07
-1.86565e-07
1.78871e-07
-8.32605e-09
-1.40488e-08
1.78616e-07
5.27959e-08
-1.25744e-07
-1.23125e-07
-1.22973e-07
2.90974e-08
8.88212e-07
1.41286e-06
8.0179e-08
-1.33909e-06
-1.01685e-06
-1.12767e-07
1.03421e-07
1.22065e-08
3.28687e-08
2.1441e-07
2.85694e-07
-3.87224e-08
-3.34074e-07
-1.8959e-07
3.62477e-09
-2.65816e-08
-4.17898e-09
2.59302e-07
4.79637e-07
1.43195e-07
-4.74629e-07
-2.76683e-07
3.28076e-07
1.80178e-07
-2.7473e-07
-3.09403e-07
3.93211e-09
2.73725e-07
1.55002e-07
-5.8864e-08
-1.78315e-08
-1.78759e-07
-1.34375e-07
4.45839e-07
3.08958e-07
-3.31947e-07
-3.04264e-07
9.59758e-09
3.26965e-08
-2.3086e-07
-3.4606e-08
1.008e-06
1.07048e-06
-3.66645e-07
-1.15214e-06
-6.24948e-07
-6.26495e-08
-2.51489e-08
3.07755e-07
3.97289e-07
-1.45239e-08
-3.79702e-07
-2.09263e-07
7.10094e-08
7.52211e-08
-1.20257e-07
-1.16959e-07
2.11574e-07
3.5463e-07
-4.86173e-08
-4.07867e-07
-1.35852e-07
2.24174e-07
1.74025e-07
-1.02406e-07
-2.51221e-07
-1.18307e-07
4.09071e-08
3.73112e-08
-5.05207e-08
-9.59326e-08
1.20708e-07
2.9776e-07
-8.14503e-08
-2.60263e-07
1.21402e-07
1.43811e-07
-1.79774e-09
3.31013e-07
2.18451e-07
-5.76414e-07
-3.18851e-07
6.6709e-07
4.89575e-07
-3.71392e-07
-6.20791e-07
-3.5663e-07
-8.53323e-08
1.30808e-07
1.38448e-07
-1.30164e-07
-1.2394e-07
-9.646e-10
-1.46059e-08
9.96662e-08
9.8175e-08
-5.59383e-08
2.55834e-08
6.75226e-08
-1.79294e-07
-2.88553e-07
-6.88712e-08
1.37171e-07
1.12626e-07
-6.1582e-08
-1.68409e-07
-8.54672e-08
9.33574e-09
-1.73344e-08
-1.35536e-08
6.52128e-08
4.76061e-08
-6.10738e-08
1.4861e-08
2.06503e-07
1.94608e-07
1.34495e-07
2.19439e-07
3.19164e-07
3.24997e-07
-2.97409e-07
-8.34253e-07
-2.52635e-07
3.04764e-07
1.06752e-07
-1.56906e-07
-1.87044e-07
2.11295e-08
3.41844e-08
-9.13581e-08
-1.2401e-08
1.83989e-07
3.92831e-08
-1.12276e-07
1.90909e-07
4.21448e-07
7.18896e-08
-2.79592e-07
-2.48721e-07
-1.59726e-07
-1.21924e-07
-5.15692e-08
3.74663e-08
9.62755e-08
7.13866e-08
-5.86492e-08
-1.53498e-07
-6.71158e-08
5.16455e-08
4.71313e-08
-1.21375e-09
-3.40385e-08
-3.86536e-08
9.32289e-09
5.80786e-08
8.7002e-08
1.56266e-07
2.52725e-07
2.94047e-07
2.5692e-07
-7.63653e-08
-5.39898e-07
-3.48714e-07
1.16539e-07
9.50132e-08
-1.16438e-07
-1.12269e-07
-4.5205e-08
-3.96301e-08
-8.74039e-08
2.15781e-08
1.12949e-07
-2.37483e-08
-7.81633e-08
2.39433e-07
4.79287e-07
9.61447e-08
-3.73105e-07
-2.302e-07
4.08889e-08
-2.53915e-08
-1.13983e-07
-7.56178e-08
-2.42514e-09
4.0298e-08
-1.73039e-08
-7.94004e-08
-7.04103e-10
1.03208e-07
5.12917e-08
-5.14291e-08
-4.85768e-08
5.00278e-09
4.04831e-08
7.96927e-08
9.1245e-08
3.83456e-08
-3.13094e-08
-1.51464e-08
2.20749e-07
2.80022e-07
-1.88881e-07
-4.14968e-07
-8.03914e-08
1.56219e-07
4.44785e-08
-8.63123e-08
-5.15002e-08
2.17892e-08
5.57709e-09
2.12256e-08
1.08891e-07
4.93935e-08
-4.90686e-08
8.84857e-08
2.17345e-07
4.33853e-08
-1.52456e-07
-9.46589e-08
-4.70112e-08
-6.96331e-08
5.43757e-08
1.27614e-07
1.02477e-08
-1.03978e-07
-1.18698e-07
-7.36486e-08
-1.63099e-08
2.02515e-08
3.94818e-08
6.77971e-08
7.04724e-08
4.31118e-08
6.7423e-08
8.92167e-08
-2.7184e-08
-1.89647e-07
-1.8133e-07
-1.17506e-08
1.3443e-07
1.6796e-07
5.69565e-09
-1.9324e-07
-1.26275e-07
4.77673e-08
4.06949e-08
-6.43048e-08
-2.39165e-08
-2.5589e-09
1.5036e-08
1.02495e-07
1.95904e-07
1.99075e-07
1.83117e-07
2.77565e-07
2.23311e-07
-2.10051e-07
-4.71829e-07
-2.08194e-07
2.61025e-08
-4.68614e-08
-7.80747e-08
-1.39334e-11
-3.35765e-09
-5.46016e-08
-3.8166e-08
2.80841e-08
7.6537e-08
8.3582e-08
4.95581e-08
-1.45732e-08
-6.1423e-08
-2.32543e-08
8.54343e-08
1.31548e-07
1.99851e-08
-1.58391e-07
-1.85907e-07
3.38913e-08
2.05389e-07
4.77833e-08
-1.46153e-07
-9.1119e-08
3.55159e-08
1.87142e-08
-7.47854e-08
-8.24837e-08
-1.11275e-08
4.16772e-08
-2.29197e-08
-6.76441e-08
1.43448e-07
4.36037e-07
3.17561e-07
-8.19607e-08
-1.81852e-07
-8.78575e-08
-1.4904e-07
-1.83814e-07
-5.28726e-08
5.18073e-08
3.26685e-08
-2.6164e-08
-6.10511e-08
-5.6931e-08
3.27496e-10
1.03011e-07
1.83977e-07
1.53718e-07
2.22096e-08
-1.05143e-07
-1.56694e-07
-1.05507e-07
4.38177e-08
1.71657e-07
1.31792e-07
-1.36716e-08
-7.87778e-08
-2.809e-08
3.95727e-08
1.27807e-08
-7.56453e-08
-4.97593e-08
5.31267e-08
3.46399e-08
-7.63807e-08
-9.76105e-08
3.32974e-11
-4.58263e-10
-2.39827e-10
1.05408e-09
1.96376e-09
6.78388e-10
-1.15832e-09
-7.818e-10
1.11007e-09
2.14328e-09
3.57001e-09
7.32702e-09
1.222e-08
1.51227e-08
1.41483e-08
9.17998e-09
6.36738e-10
-6.93088e-09
-7.63397e-09
-8.86758e-09
-3.061e-09
1.73931e-08
2.11356e-08
7.19664e-09
-4.70393e-09
-2.42893e-08
-4.22469e-08
-3.23786e-08
-8.96763e-10
3.08423e-08
3.93036e-08
9.08664e-09
-4.00825e-08
-5.85475e-08
-1.50714e-08
5.16944e-09
-1.54384e-08
-7.53933e-09
-2.68995e-10
2.14079e-10
-1.92224e-09
-3.34255e-09
2.9233e-09
1.99563e-08
3.5612e-08
1.95135e-08
-1.88432e-08
-3.06186e-08
-2.55376e-09
2.37409e-08
3.52958e-08
6.31199e-08
1.14649e-07
1.68576e-07
1.97551e-07
1.81341e-07
1.18478e-07
2.39681e-08
-8.85238e-08
-2.34781e-07
-2.73548e-07
1.3783e-08
3.38888e-07
3.33198e-07
9.24719e-08
-2.67463e-07
-5.93431e-07
-5.72009e-07
-1.83947e-07
2.6173e-07
4.82272e-07
3.13616e-07
-1.76633e-07
-6.48968e-07
-5.48215e-07
6.19952e-08
3.14169e-08
-1.31e-07
-3.65548e-08
1.96633e-09
-6.98795e-09
-1.28838e-08
4.45755e-09
2.71309e-08
4.69639e-08
4.38413e-08
3.41231e-09
-4.16009e-08
-2.6359e-08
3.04014e-08
4.75662e-08
5.13572e-08
1.06373e-07
1.98596e-07
2.58316e-07
2.37173e-07
1.93429e-07
1.47534e-07
6.93946e-08
-1.62822e-08
-2.29273e-07
-1.6074e-07
4.09165e-07
6.0547e-07
2.04431e-07
-2.26821e-07
-5.14283e-07
-5.2887e-07
-2.2126e-07
1.9464e-07
4.92957e-07
5.1368e-07
1.85022e-07
-3.02974e-07
-5.46016e-07
-4.62946e-08
2.76734e-07
-1.13606e-07
-1.61114e-07
-1.47521e-08
-7.78191e-09
-2.28922e-08
-6.64055e-09
1.1555e-08
2.00539e-08
1.6145e-08
9.76686e-09
-4.22069e-09
-1.86182e-08
1.61865e-08
3.46963e-08
1.35219e-08
4.58523e-08
1.43306e-07
1.86877e-07
8.42783e-08
9.37992e-09
4.6356e-08
4.27161e-08
2.88578e-07
3.43089e-07
-2.24197e-07
7.4315e-08
5.55381e-07
6.51452e-08
-4.08977e-07
-3.9416e-07
-2.34635e-07
-5.77954e-08
8.83999e-08
2.09871e-07
2.75273e-07
1.95307e-07
4.53186e-09
-5.32409e-08
3.67363e-07
6.35671e-07
-8.4864e-08
-4.15108e-07
-1.26082e-07
-6.44288e-08
-3.1041e-08
-2.13254e-08
8.8091e-09
1.54486e-08
-9.15792e-09
-1.86251e-08
1.75526e-08
4.47833e-09
-1.15548e-08
2.43444e-08
1.08904e-08
3.47238e-08
1.64114e-07
1.97692e-07
-5.10039e-08
-2.20918e-07
-1.07264e-07
-1.06833e-07
2.33539e-07
1.01593e-06
1.46692e-08
-4.00173e-07
4.81159e-07
1.0087e-07
-6.87316e-07
-5.3217e-07
-2.06571e-07
-3.79263e-08
1.8792e-08
2.6727e-08
3.57948e-08
2.92629e-08
3.12338e-08
1.70429e-07
7.60692e-07
1.17787e-06
1.42276e-07
-7.95214e-07
-4.80081e-07
-3.13922e-07
-5.18875e-08
-3.93652e-08
2.42473e-08
4.09761e-08
-1.88219e-08
-5.36299e-08
1.39689e-08
4.69692e-08
-2.95277e-08
-1.94464e-08
3.16422e-08
9.12009e-08
2.88947e-07
2.93405e-07
-1.62108e-07
-3.90036e-07
-1.52349e-07
-7.59615e-08
4.7609e-08
1.36045e-06
6.66254e-07
-6.21856e-07
2.96719e-07
1.92664e-07
-8.71443e-07
-6.10252e-07
-1.78099e-07
-6.80763e-08
-2.79682e-08
1.74674e-08
-1.41302e-08
-7.53947e-08
-6.93402e-09
1.90614e-07
6.8191e-07
1.44213e-06
8.4244e-07
-6.97715e-07
-9.8233e-07
-7.94552e-07
-2.0057e-07
-5.15222e-08
5.09703e-08
9.10038e-08
-2.95912e-08
-1.14828e-07
1.02673e-08
9.10758e-08
-1.10078e-08
-7.7453e-08
1.6939e-08
2.02713e-07
4.56679e-07
3.07303e-07
-3.14522e-07
-4.32688e-07
-1.1486e-07
-1.39775e-08
2.56311e-08
1.37741e-06
1.27816e-06
-6.84795e-07
-1.52465e-07
1.26462e-08
-8.85264e-07
-4.90364e-07
-3.99201e-08
5.26954e-08
5.96713e-08
4.99071e-08
-9.20533e-08
-3.28828e-07
-2.67007e-07
1.38597e-07
5.11685e-07
1.0623e-06
1.16642e-06
5.09423e-08
-1.0448e-06
-1.05669e-06
-6.37369e-07
-1.48284e-07
1.03507e-07
1.94082e-07
-1.12383e-08
-2.60237e-07
-8.01136e-08
1.93002e-07
1.58564e-08
-1.03884e-07
1.27471e-08
3.24401e-07
5.7165e-07
1.35262e-07
-4.23579e-07
-2.97616e-07
-7.49171e-08
-6.41876e-08
8.54055e-08
1.333e-06
1.61862e-06
-6.63086e-07
-6.91983e-07
-2.88109e-07
-6.86375e-07
-3.32609e-07
8.06878e-09
1.28564e-07
2.13269e-07
2.8023e-07
1.35846e-07
-3.76177e-07
-7.53213e-07
-2.845e-07
3.9543e-07
6.65729e-07
8.41921e-07
6.51544e-07
-2.93899e-07
-4.3348e-07
-1.09057e-06
-5.62655e-07
9.96378e-08
3.95644e-07
1.3684e-07
-3.74659e-07
-4.00584e-07
2.65975e-07
2.03065e-07
-2.18948e-07
2.32481e-08
4.32128e-07
4.31884e-07
-1.70435e-07
-4.23547e-07
-1.31561e-07
-6.348e-08
-1.67487e-07
1.48442e-07
1.28004e-06
1.66098e-06
-5.78356e-07
-1.07221e-06
-4.67312e-07
-4.06743e-07
-2.06623e-07
6.56714e-09
1.36088e-07
2.62955e-07
4.15516e-07
4.18833e-07
-2.16957e-08
-7.62766e-07
-8.143e-07
1.17935e-08
4.79063e-07
4.46101e-07
6.03319e-07
6.45856e-07
8.75821e-07
-8.84426e-07
-1.26239e-06
-1.03358e-07
6.27084e-07
1.39622e-07
-4.98614e-07
-5.45667e-07
1.36414e-07
5.9822e-07
-1.94284e-07
-2.80097e-07
4.53077e-07
2.48074e-07
-4.49437e-07
-3.58034e-07
4.72658e-09
-9.69808e-08
-2.65903e-07
2.25983e-07
1.23981e-06
1.44058e-06
-4.92057e-07
-1.1477e-06
-4.7526e-07
-2.10834e-07
-1.4682e-07
-1.48666e-08
1.12406e-07
2.52285e-07
4.66552e-07
5.95216e-07
2.48061e-07
-5.44209e-07
-9.41026e-07
-3.9272e-07
2.39136e-07
2.73195e-07
3.52004e-07
1.0197e-06
1.85369e-06
-1.6065e-07
-1.81567e-06
-4.18546e-07
7.66652e-07
-3.86268e-08
-7.13133e-07
-4.87057e-07
5.94462e-08
7.23211e-07
2.65779e-07
-5.86802e-07
5.78813e-08
3.81573e-07
-2.54548e-07
-2.39457e-07
2.78514e-08
-2.02759e-07
-3.77489e-07
3.10969e-07
1.24785e-06
1.09958e-06
-4.11225e-07
-9.541e-07
-4.79558e-07
-2.37797e-07
-1.5133e-07
-2.8475e-08
7.11124e-08
1.87542e-07
4.21104e-07
7.08508e-07
5.21459e-07
-3.74553e-07
-9.70812e-07
-5.67176e-07
4.45558e-08
1.3636e-07
1.90733e-07
9.00784e-07
1.70778e-06
2.73017e-07
-1.74622e-06
-6.15288e-07
6.46817e-07
-9.41054e-08
-6.79667e-07
-3.80587e-07
7.50174e-08
5.84543e-07
6.03189e-07
-3.85366e-07
-3.24032e-07
5.62136e-07
2.44942e-07
-2.82921e-07
-1.92842e-07
-3.55265e-07
-4.50854e-07
3.47504e-07
1.25836e-06
8.62614e-07
-4.26881e-07
-8.96258e-07
-5.45473e-07
-2.61226e-07
-1.34782e-07
-3.89055e-08
3.32805e-08
8.52291e-08
2.74817e-07
6.95072e-07
8.66557e-07
1.68049e-08
-9.83967e-07
-7.73082e-07
-6.58013e-08
7.18464e-08
9.38328e-08
5.74757e-07
7.33202e-07
1.92725e-08
-9.60467e-07
-3.47144e-07
2.43105e-07
-1.29432e-07
-3.56408e-07
-1.54072e-07
8.48058e-08
5.32161e-07
7.31986e-07
-1.51035e-07
-5.06892e-07
5.16228e-07
5.07355e-07
-3.69645e-07
-3.88635e-07
-3.58512e-07
-4.46148e-07
2.54513e-07
1.15473e-06
6.65713e-07
-6.63197e-07
-8.95551e-07
-2.84443e-07
-1.26425e-07
-1.35667e-07
-1.22578e-09
3.44907e-08
-3.14501e-08
4.0507e-08
4.38367e-07
1.02808e-06
7.19671e-07
-6.29698e-07
-1.0587e-06
-3.31045e-07
1.01693e-07
9.17866e-08
3.18127e-07
8.05346e-08
-3.33307e-07
-2.63248e-07
8.81943e-08
-6.22777e-08
-1.71901e-07
-8.085e-08
2.58127e-09
6.04862e-08
4.67481e-07
9.32814e-07
1.31043e-07
-7.05121e-07
1.38442e-07
4.3137e-07
-3.28573e-07
-3.26696e-07
-1.98457e-07
-3.98895e-07
9.1911e-08
9.10484e-07
4.30371e-07
-6.525e-07
-5.43373e-07
-5.89435e-08
-1.40316e-07
-9.91998e-08
8.92025e-08
1.21375e-08
-1.87796e-07
-1.75475e-07
5.52354e-08
6.79665e-07
1.22488e-06
2.20603e-07
-1.04079e-06
-7.80244e-07
-2.34749e-08
2.07521e-07
2.28262e-07
-3.38572e-08
-2.31889e-07
1.27176e-08
1.1838e-07
-1.16637e-07
-1.80871e-07
-7.32916e-08
-1.49432e-10
3.78781e-08
3.94998e-07
1.04989e-06
4.79629e-07
-7.60651e-07
-3.93243e-07
1.36541e-07
-1.6056e-07
-7.16852e-08
-4.97813e-08
-3.32526e-07
-7.80577e-09
7.613e-07
5.03367e-07
-4.23275e-07
-5.10849e-07
-2.95241e-07
-8.34499e-08
1.9471e-07
8.4974e-08
-2.19085e-07
-2.47593e-07
-1.02448e-07
-1.09549e-07
8.46484e-08
1.01382e-06
1.00906e-06
-5.43925e-07
-1.10222e-06
-3.73514e-07
1.73659e-07
2.28143e-07
-2.59348e-08
-1.29429e-07
6.64056e-08
9.95503e-08
-8.92451e-08
-1.70983e-07
-9.40455e-08
-1.58172e-08
5.22122e-09
3.65056e-07
1.10852e-06
6.83222e-07
-7.36755e-07
-8.02425e-07
-7.92217e-08
1.24082e-07
1.18616e-07
-7.60876e-08
-3.12835e-07
-6.0159e-08
5.25478e-07
5.09725e-07
-3.06705e-07
-6.97504e-07
-1.38429e-07
4.83226e-07
1.83404e-07
-4.40438e-07
-4.18061e-07
-1.75825e-08
1.90525e-07
-3.31358e-08
-2.9301e-07
4.18445e-07
1.28913e-06
2.40922e-07
-1.08927e-06
-7.81453e-07
-1.20825e-08
1.92432e-07
-1.94219e-09
-7.45255e-08
7.78969e-08
1.21448e-07
-1.72925e-08
-9.92996e-08
-8.97503e-08
-6.4829e-08
-4.10142e-08
3.29376e-07
1.17071e-06
8.3872e-07
-7.4287e-07
-1.00951e-06
-1.96993e-08
3.89572e-07
9.24196e-08
-2.72242e-07
-3.92201e-07
-7.65095e-08
3.39571e-07
1.67458e-07
-3.90993e-07
-1.6621e-07
6.78192e-07
4.6828e-07
-5.44564e-07
-5.70102e-07
7.71599e-08
1.04911e-07
-5.94723e-08
5.28688e-08
-2.22905e-07
-1.59741e-07
8.9777e-07
9.17377e-07
-5.27851e-07
-1.01914e-06
-3.68287e-07
6.97167e-08
-3.4649e-08
2.74842e-08
1.38986e-07
1.32322e-07
-1.08997e-08
-9.24685e-08
-5.02822e-08
-3.0881e-08
-5.92147e-08
2.20128e-07
9.69912e-07
7.65687e-07
-7.09768e-07
-9.12054e-07
1.91095e-07
3.85731e-07
-1.99853e-07
-4.13205e-07
-2.84958e-07
-5.81813e-08
1.82566e-07
1.18489e-07
-2.29386e-08
3.32953e-07
4.23271e-07
-3.25622e-07
-4.93647e-07
1.74656e-07
2.87737e-07
-8.77685e-08
-2.05751e-07
9.09834e-08
1.21151e-07
-3.82203e-07
-2.56755e-08
7.72587e-07
2.51601e-07
-6.3147e-07
-5.8644e-07
-1.87734e-07
-1.28088e-07
-4.81886e-09
1.07725e-07
9.1631e-08
-3.41581e-08
-9.77034e-08
-9.61489e-09
7.57964e-08
1.66337e-08
1.10129e-07
4.57087e-07
2.2889e-07
-5.3253e-07
-4.09538e-07
1.39681e-07
-1.08433e-08
-2.2449e-07
-6.33038e-08
-9.18962e-09
-9.37933e-08
4.16314e-09
1.74528e-07
1.71363e-07
-1.95696e-08
-2.45264e-07
-6.40451e-08
1.83816e-07
-2.11284e-08
-8.09508e-08
1.15903e-08
3.8392e-09
4.53254e-07
6.1819e-07
-2.95131e-07
-7.59372e-07
-6.85141e-08
3.23471e-07
-3.41955e-08
-2.54808e-07
-2.15255e-07
-8.56796e-08
-1.02423e-07
-1.21334e-07
-1.67728e-08
1.21332e-07
3.06377e-08
-1.02785e-07
7.52312e-08
2.97054e-07
1.88411e-07
-5.39294e-08
-2.68541e-07
-3.03844e-07
-8.34714e-08
-8.89288e-09
-8.31788e-08
-4.42314e-08
4.74603e-08
4.52689e-08
-2.96885e-08
-5.09893e-08
1.19856e-08
1.38867e-08
-5.17981e-08
1.83639e-08
8.5091e-08
9.21153e-10
8.04564e-08
2.36817e-07
4.97983e-08
-1.96002e-07
4.6569e-07
1.20861e-06
1.01292e-07
-1.20493e-06
-7.57665e-07
1.60338e-07
2.61793e-07
-2.63649e-08
-1.17166e-07
-1.25776e-07
-8.88428e-08
-1.39316e-07
-2.70071e-08
1.50425e-07
7.34267e-08
-1.16801e-07
1.71247e-08
4.52377e-07
4.74911e-07
-1.10429e-07
-4.32938e-07
-2.07772e-07
-3.77622e-08
-8.42303e-08
-7.66999e-08
-6.28587e-09
1.14336e-08
-1.53875e-08
-2.53849e-08
-1.24414e-08
-1.3452e-08
-1.5421e-08
9.79399e-09
4.13501e-08
4.93692e-08
6.91102e-08
1.41009e-07
2.00704e-07
9.32984e-08
-1.11559e-07
1.63419e-07
8.80493e-07
4.58106e-07
-8.54225e-07
-8.70829e-07
1.01291e-07
3.67918e-07
-2.96655e-08
-2.23176e-07
-1.36031e-07
-1.18698e-07
-9.77091e-08
3.36016e-08
1.45376e-07
5.20774e-08
-1.30422e-07
-2.49828e-08
4.23494e-07
5.30352e-07
-9.20948e-08
-4.66357e-07
-9.71961e-08
7.4454e-08
-1.26372e-07
-9.81e-08
5.44201e-08
-1.2369e-08
-1.22231e-07
-6.23067e-08
2.97213e-08
1.22827e-08
-2.82905e-08
3.12133e-08
1.36344e-07
1.66002e-07
1.27372e-07
6.3395e-08
-5.05166e-08
-1.91879e-07
-1.90288e-07
1.62659e-07
5.59851e-07
2.70795e-07
-4.02686e-07
-4.87615e-07
-4.82052e-08
2.17114e-07
7.8821e-08
-1.1813e-07
-5.21532e-08
3.0958e-08
-2.1588e-08
-4.66833e-08
5.09201e-08
6.79549e-08
-4.68335e-08
3.58227e-08
3.4218e-07
3.52651e-07
-5.96279e-08
-3.04177e-07
-1.76711e-07
-7.79473e-08
-2.69439e-08
9.17485e-08
1.04911e-07
-5.38635e-08
-1.70306e-07
-1.1841e-07
-3.34425e-08
1.15762e-08
9.58935e-08
1.8281e-07
9.84351e-08
-8.10156e-08
-4.24176e-08
1.31148e-07
4.60338e-08
-2.14364e-07
-2.02005e-07
9.55688e-08
2.70217e-07
6.8354e-08
-2.39321e-07
-1.82416e-07
8.18853e-08
1.19887e-07
-4.71526e-08
-1.39097e-07
-9.30721e-08
-1.41623e-08
1.59402e-08
4.55156e-08
7.72288e-08
7.5614e-08
6.05989e-08
1.71773e-07
3.80807e-07
2.67589e-07
-2.07853e-07
-3.98693e-07
-1.95965e-07
-9.25994e-08
-1.08552e-07
-2.43733e-08
8.32706e-08
7.92078e-08
7.48043e-09
-3.32542e-08
-3.15196e-08
-2.33049e-08
-1.06402e-08
1.28111e-09
-2.29593e-08
-2.71105e-08
9.02221e-08
2.06201e-07
7.84947e-08
-1.87315e-07
-1.52344e-07
2.06244e-07
2.73458e-07
-7.54875e-08
-2.53325e-07
-6.20437e-08
1.32706e-07
6.41322e-08
-1.24587e-07
-1.79489e-07
-1.87682e-07
-1.1838e-07
-1.13924e-07
-2.62271e-08
2.21704e-07
3.12489e-07
5.80179e-08
-1.84927e-07
-1.29825e-07
-1.81186e-08
-6.91591e-08
-1.20899e-07
-3.96793e-08
4.44929e-08
3.22377e-08
-1.17625e-08
-3.16899e-08
-3.22505e-08
-3.57174e-09
6.65597e-08
1.20867e-07
9.47707e-08
2.45616e-08
-4.6136e-08
-1.20319e-07
-1.1061e-07
7.65465e-08
2.61593e-07
1.71337e-07
-9.21749e-08
-1.74676e-07
2.56401e-08
2.01435e-07
5.94474e-08
-1.67435e-07
-1.08223e-07
1.27483e-07
1.87807e-07
-1.71506e-09
-1.89002e-07
-2.90289e-10
-1.92168e-10
9.03589e-10
2.08512e-09
2.34961e-09
7.95952e-10
-9.2772e-10
-1.05531e-09
6.13161e-10
3.70337e-09
8.27409e-09
1.32239e-08
1.65576e-08
1.71207e-08
1.54328e-08
1.33748e-08
1.0522e-08
-3.86315e-10
-2.48251e-08
-4.01896e-08
-2.55704e-08
-9.01626e-09
2.46132e-09
3.91329e-09
-1.99798e-09
-8.30161e-09
-9.51591e-09
1.23986e-09
2.04785e-08
3.05543e-08
9.53949e-09
-3.34741e-08
-5.22688e-08
-2.74121e-08
7.20535e-10
-4.7928e-09
-1.07192e-08
-3.39646e-09
8.62068e-10
1.02861e-09
1.61487e-09
1.87364e-09
1.1219e-08
3.11227e-08
3.85751e-08
1.70938e-08
-9.8326e-09
-1.70832e-08
-2.56135e-09
2.76579e-08
7.41804e-08
1.27733e-07
1.68444e-07
1.84819e-07
1.78921e-07
1.74846e-07
1.91786e-07
1.74611e-07
-4.6993e-08
-4.65172e-07
-5.65233e-07
-2.96422e-07
-4.71891e-09
1.31118e-07
3.07834e-08
-1.58642e-07
-2.12455e-07
-6.19593e-08
1.956e-07
3.72903e-07
2.51116e-07
-2.00883e-07
-6.2974e-07
-6.27033e-07
-2.50813e-07
2.68907e-08
-4.13813e-08
-6.53219e-08
-1.9265e-08
3.91763e-09
3.9354e-09
-2.66228e-09
3.21534e-09
3.24506e-08
4.87986e-08
2.23316e-08
-7.3183e-09
-1.05712e-08
-7.81101e-09
-3.80971e-09
3.19724e-08
1.01378e-07
1.61314e-07
1.76388e-07
1.48658e-07
1.41673e-07
2.28879e-07
3.64446e-07
3.47652e-07
-3.90386e-08
-4.3098e-07
-3.54788e-07
-9.45702e-08
2.17105e-07
2.06414e-07
-1.64476e-07
-3.5035e-07
-1.90081e-07
1.08386e-07
3.53237e-07
3.7347e-07
5.74495e-08
-4.05204e-07
-5.96025e-07
-3.70379e-07
8.55521e-09
8.87356e-08
-8.4985e-08
-1.07554e-07
-2.41015e-08
-1.65588e-08
-4.56425e-09
-1.25147e-08
1.34424e-08
3.04919e-08
3.11116e-09
-1.82497e-08
-1.11551e-08
-1.42179e-08
-3.12054e-08
-1.78806e-08
3.84746e-08
9.3552e-08
9.03323e-08
1.90773e-08
-2.01123e-08
6.54306e-08
2.13128e-07
2.84111e-07
1.70709e-07
1.2187e-07
2.70142e-07
-8.18507e-08
-7.68179e-08
1.66289e-07
-1.51197e-07
-3.73728e-07
-1.82206e-07
4.12335e-08
1.8766e-07
2.39903e-07
1.04403e-07
-1.28878e-07
-1.82719e-07
5.22292e-08
3.30279e-07
2.74647e-07
-1.11588e-07
-3.3442e-07
-1.86322e-07
-1.6854e-07
-1.62879e-08
-2.31997e-08
1.04499e-08
4.03283e-08
1.12908e-08
-9.08508e-09
8.21697e-09
1.47379e-09
-2.98525e-08
-2.94414e-08
2.67045e-08
9.59906e-08
9.15396e-08
-2.64234e-08
-1.03294e-07
-3.08852e-08
7.59653e-08
1.20595e-07
-8.92995e-09
1.54574e-07
9.44185e-07
2.57047e-07
-5.30031e-07
-3.33734e-08
-1.14262e-07
-4.57554e-07
-1.93638e-07
4.78977e-08
1.0981e-07
1.25178e-07
3.36226e-08
-1.20676e-07
-6.66005e-08
3.37295e-07
7.64556e-07
6.47783e-07
4.07169e-08
-5.57483e-07
-5.88731e-07
-5.97906e-07
-1.07869e-07
-4.3647e-08
6.12568e-09
6.11497e-08
2.95248e-08
3.23297e-09
4.82364e-08
5.04581e-08
-2.46753e-08
-5.9997e-08
6.94227e-09
1.01978e-07
9.33936e-08
-4.23864e-08
-8.87918e-08
4.38596e-09
5.23064e-08
1.03383e-07
-5.53405e-09
-6.16735e-08
1.05261e-06
8.819e-07
-6.5906e-07
-2.72808e-07
-1.58071e-08
-5.61678e-07
-3.36633e-07
1.91561e-08
1.19569e-07
1.17425e-07
2.01259e-08
-1.54361e-07
-1.58901e-07
2.05531e-07
7.96884e-07
1.06327e-06
6.92875e-07
-1.36858e-07
-9.46323e-07
-1.22929e-06
-4.67439e-07
-1.05984e-07
-5.81396e-09
7.94843e-08
4.66019e-08
-5.29421e-09
5.27419e-08
1.14065e-07
3.00741e-08
-8.39036e-08
-4.1319e-08
6.52354e-08
4.00107e-08
-5.41434e-08
1.01447e-08
9.50839e-08
6.84138e-08
5.09746e-08
-2.61391e-08
-7.29441e-08
9.74516e-07
1.21743e-06
-6.69902e-07
-5.61449e-07
-3.66337e-08
-5.1547e-07
-3.47709e-07
-6.60059e-09
1.24259e-07
1.44392e-07
3.74858e-08
-2.24064e-07
-3.82163e-07
-9.26427e-08
5.17204e-07
1.03637e-06
1.22807e-06
1.0007e-06
-5.19112e-07
-1.38126e-06
-1.22343e-06
-3.27893e-07
-2.78392e-08
9.50187e-08
7.53197e-08
-2.08246e-08
-2.5765e-08
6.43004e-08
1.32388e-07
7.80081e-08
1.63907e-08
5.94161e-09
-1.03587e-07
-1.19426e-07
8.59971e-08
1.29412e-07
8.57629e-08
2.12347e-08
-1.24266e-07
2.94305e-08
1.07048e-06
1.09183e-06
-8.25892e-07
-7.74576e-07
-1.70663e-07
-3.72523e-07
-1.86485e-07
6.78021e-08
1.90651e-07
2.45074e-07
1.98453e-07
-1.08905e-07
-6.32153e-07
-6.78925e-07
3.96162e-10
6.95688e-07
1.21461e-06
2.01479e-06
1.1185e-06
-2.57138e-07
-2.02948e-06
-9.04978e-07
-1.00064e-07
1.17739e-07
1.06711e-07
-2.28782e-08
-8.87896e-08
-6.12232e-08
7.63695e-08
3.02008e-07
3.41183e-07
4.2992e-08
-4.02564e-07
-3.59323e-07
7.19925e-08
1.34481e-07
1.01636e-07
-1.37519e-09
-1.73314e-07
2.33189e-07
1.22372e-06
7.99468e-07
-1.02289e-06
-9.38232e-07
-2.56736e-07
-1.76073e-07
-3.39588e-08
1.19551e-07
2.26784e-07
3.2599e-07
4.13689e-07