/*--------------------------------*- C++ -*----------------------------------*\
| =========                 |                                                 |
| \\      /  F ield         | OpenFOAM: The Open Source CFD Toolbox           |
|  \\    /   O peration     | Version:  5.0                                   |
|   \\  /    A nd           | Web:      www.OpenFOAM.org                      |
|    \\/     M anipulation  |                                                 |
\*---------------------------------------------------------------------------*/
FoamFile
{
    version     2.0;
    format      ascii;
    class       volScalarField;
    location    "50.4676134421789371";
    object      Ctt;
}
// * * * * * * * * * * * * * * * * * * * * * * * * * * * * * * * * * * * * * //

dimensions      [0 0 -1 2 0 0 0];

internalField   nonuniform List<scalar> 
60000
(
0.257417
0.130109
-0.126085
-0.492801
-0.398396
0.000398214
0.0874074
0.00241989
0.0667605
0.168943
0.272689
0.14007
-0.142916
-0.227439
0.0803012
0.511618
0.486164
-0.0470852
-0.890136
-1.40164
-1.20353
-0.378424
0.479841
0.817345
0.609024
0.144628
-0.0510049
-0.240849
-1.18119
-2.18068
-1.89135
-0.822865
0.231208
0.921365
0.437681
-1.25189
-1.35824
-0.249053
0.41302
0.45785
-2.27949
-3.8684
-4.64016
-4.49071
-2.60082
-0.250557
0.844178
1.17123
1.84158
2.14531
0.888327
-1.70606
-3.79295
-3.72533
-1.46859
1.31054
2.87447
2.24314
-0.126083
-2.3786
-2.49395
-0.213208
1.99811
3.1587
4.10585
5.47915
7.402
7.2094
1.04653
-7.17826
-9.15883
-6.00091
-2.37566
0.523955
-0.590646
-6.05767
-6.34016
-1.87359
0.624003
-0.126897
0.573494
-2.15583
-3.74196
-3.30844
-1.39649
0.381653
1.00029
0.740908
1.04256
1.67282
0.735008
-2.19622
-4.8878
-4.75675
-2.39064
0.709983
4.50868
8.261
8.92914
4.70404
-1.25826
-4.83031
-5.13529
-1.81293
5.75489
15.3512
23.0323
24.4972
16.8262
5.24587
-0.639396
-0.107606
1.8414
2.85028
1.01303
-2.84649
-3.03033
0.223565
2.64525
2.68635
0.717889
0.0389606
-0.452462
-0.436127
-0.155804
0.0889272
0.206235
0.166924
0.136617
0.284013
0.282086
-0.2261
-0.883204
-0.920938
-0.468239
0.0641323
0.832921
2.11711
3.01227
1.84203
-0.545242
-2.1819
-2.47057
-1.3381
1.20223
4.19342
6.88844
8.71736
7.71556
3.80474
0.845611
0.38033
0.89196
1.37388
1.24063
0.185647
-0.381448
0.0814007
0.682722
0.983589
0.047954
0.0218239
-0.000919043
0.000108601
0.00646039
0.00236971
-0.00218527
0.00203509
0.00691925
0.016666
0.0219524
0.00365439
-0.0158011
0.0211391
0.0269853
-0.0226062
-0.035405
0.17869
0.55103
0.249735
-0.330676
-0.231036
0.0642472
0.0111917
-0.100282
-0.0081724
0.156708
0.493537
0.9129
0.582166
-0.0111503
-0.0686045
0.0426746
0.0640443
0.0868652
0.0576008
-0.00805165
0.00368466
0.0228183
0.0412377
-0.00206917
0.00255314
0.00407531
0.00407072
0.00417723
0.00248493
-0.0030142
-0.00442418
-0.000488584
0.00161987
0.00153858
0.00248784
0.0164126
0.0327121
0.0186754
-0.0145128
-0.033699
0.00934138
0.274827
0.204811
-0.217039
-0.0234202
0.222043
-0.0379511
-0.207385
-0.107156
-0.0103006
-0.00319948
0.0650695
0.128986
-0.00622893
-0.046252
0.0189731
0.012511
-0.0243353
-0.0159385
0.00401334
0.0105892
0.000597521
-0.00676439
-0.00126375
0.000419426
0.000943513
0.000578127
0.000794255
0.00149767
0.000519781
-0.00111721
-0.000439558
-9.92004e-05
0.000230856
0.000162849
0.00333972
0.005817
-2.50173e-05
-0.00282351
0.00187608
-0.00519246
0.135837
0.209165
-0.108658
-0.026661
0.103984
-0.101825
-0.122759
-0.0329145
-0.00315213
0.00493561
-4.31171e-05
0.017098
0.0185835
-0.00771928
-0.00156414
0.0100221
-0.000330563
-0.00691635
-0.00151111
0.00279778
0.00148755
-0.00152103
-0.000121186
1.10316e-05
8.41153e-05
-6.20323e-06
1.07581e-05
0.000191777
0.000323657
6.13424e-05
-2.16204e-05
-5.78091e-05
7.29303e-05
9.29447e-06
0.000404809
0.00114266
-0.000912757
-0.00139354
0.00494242
0.0019039
0.0416863
0.13142
-0.0257272
-0.0280926
0.0204642
-0.0658368
-0.0427935
-0.00704805
-0.000778408
-0.000108934
0.000827504
-4.44827e-05
0.00236051
0.00187031
-0.000750128
0.000451159
0.00116972
-0.000313662
-0.000516769
7.18276e-05
0.000244924
-6.49424e-06
-5.98581e-06
1.05536e-06
-4.08498e-06
-9.2822e-06
-5.9559e-06
2.6588e-06
1.8661e-05
2.96205e-05
1.78359e-05
-3.52093e-07
4.1057e-05
1.2412e-05
3.15324e-05
0.000217646
-0.000241131
-0.00038148
0.0010363
0.00386856
0.00660043
0.0461971
0.00488667
-0.013345
-0.000800434
-0.0227146
-0.01105
-0.00167602
-6.17332e-05
3.39364e-06
3.28806e-06
4.32189e-05
-1.23255e-06
0.000144191
0.000150203
-2.93413e-05
3.37919e-05
4.61475e-05
-3.38033e-05
-2.48379e-05
4.40728e-06
1.81073e-06
-1.97011e-07
-1.55257e-06
-3.20463e-06
-8.67346e-07
-5.36753e-07
-8.94946e-07
2.70683e-08
1.45205e-06
2.97689e-06
4.69989e-07
1.59314e-05
5.36425e-06
-5.0492e-06
3.25013e-05
-5.63388e-05
-4.94578e-05
8.41558e-06
0.00106003
0.00116487
0.00876245
0.00483284
-0.00269792
-0.00148148
-0.00535299
-0.00221909
-0.000298229
-1.81672e-05
1.23705e-06
7.30971e-07
-6.4356e-07
1.4699e-06
1.22548e-06
3.70401e-06
6.93658e-06
-1.82186e-07
1.44751e-06
8.73192e-07
-2.9987e-07
-6.38215e-07
-5.49642e-07
-7.39973e-08
-1.22971e-07
-1.75266e-07
-9.99284e-08
5.04687e-08
9.529e-10
-1.76848e-09
4.18517e-09
9.85554e-08
1.28498e-07
1.60594e-06
1.41181e-06
-5.3844e-07
5.69604e-06
-7.59153e-06
-9.58914e-06
6.96633e-10
5.3345e-05
0.000265876
0.000805636
0.00127782
-0.000191301
-0.000430242
-0.00083876
-0.000313571
-3.16512e-05
-9.71781e-07
-8.65412e-07
3.05424e-07
2.76138e-09
2.60757e-09
4.28218e-09
1.99066e-07
1.64289e-08
2.03592e-07
1.52782e-09
1.40494e-07
-6.8025e-09
9.84002e-09
-4.78523e-08
3.63585e-10
-6.26752e-08
-9.23759e-08
-2.67155e-09
-6.83007e-11
-1.09186e-11
8.92213e-11
2.94853e-10
1.62784e-09
3.18644e-09
9.90723e-07
5.84041e-08
-3.16424e-08
7.23705e-07
-1.46174e-06
-1.17761e-06
-7.42645e-07
1.77963e-06
1.53048e-05
3.24386e-05
0.000152898
2.56279e-06
-5.31352e-05
-7.60611e-05
-2.58308e-05
-4.24864e-06
-6.83316e-07
-9.43355e-11
1.35267e-11
2.4101e-11
1.69434e-11
5.30385e-12
-5.48201e-12
1.76643e-11
-2.08724e-11
2.47852e-12
1.16824e-11
-5.44693e-12
1.59067e-10
3.66517e-10
-1.60072e-11
-1.06288e-10
-1.65096e-10
-9.31495e-12
-1.03989e-11
9.64538e-12
1.64466e-11
-1.99708e-11
2.19547e-11
1.52026e-09
2.87228e-09
1.85547e-08
4.25608e-09
-1.36933e-07
-1.60939e-07
-7.12016e-08
1.56242e-09
1.8927e-08
1.22973e-06
1.36344e-06
7.06794e-06
8.63066e-07
-3.14079e-06
-3.26853e-06
-1.08196e-06
-8.07178e-07
-1.16738e-09
1.28605e-11
-3.50201e-12
-2.62996e-11
2.19077e-11
-1.07281e-11
-2.91039e-11
1.70956e-11
-2.3051e-21
-1.17625e-11
2.12307e-11
-2.34582e-13
-1.20061e-11
1.07304e-11
-1.55796e-13
-3.11237e-11
-1.96761e-11
3.17931e-11
3.1626e-11
2.03031e-11
-5.75678e-14
-1.079e-11
-2.83411e-11
-1.90245e-11
1.47833e-10
1.33347e-10
-2.17418e-10
-1.24081e-09
-5.94292e-10
-8.07016e-12
-2.0745e-11
1.58326e-10
5.0996e-10
2.01834e-07
2.02935e-07
1.21346e-07
-3.07135e-08
-6.01554e-08
2.58626e-10
7.22188e-11
-1.07071e-11
4.29064e-11
-6.89941e-12
-3.63585e-11
1.95905e-11
2.97344e-11
2.38218e-13
-2.62619e-12
-9.33491e-12
-3.41099e-11
1.33724e-11
1.80252e-11
3.82391e-12
6.73879e-13
-5.26941e-13
2.03125e-11
-3.10983e-11
-1.94806e-11
1.1253e-11
1.06978e-11
3.11708e-11
-3.95939e-11
4.83744e-13
3.82343e-11
-1.22299e-11
6.73496e-13
-1.45763e-11
2.67659e-12
1.48119e-11
-1.99403e-11
-1.70229e-11
-1.55135e-13
2.20232e-11
1.31794e-11
3.23028e-12
2.39894e-12
1.30561e-11
-3.53637e-11
-3.49423e-11
1.67083e-11
-9.47595e-13
-6.72059e-12
1.02439e-11
-2.78241e-11
-6.59784e-12
-2.82444e-12
1.93463e-11
8.39612e-12
-3.0569e-11
8.85169e-12
3.34789e-11
-7.05511e-12
-1.07701e-11
9.81165e-12
-1.21916e-11
-2.02487e-11
1.98406e-11
3.41568e-11
-2.13991e-11
-1.03185e-11
1.05408e-11
9.59264e-14
-1.99917e-12
2.0029e-11
9.75601e-12
-2.98339e-11
-3.03135e-11
-9.60634e-12
-5.46539e-12
1.44068e-11
1.76437e-11
1.838e-11
-2.91352e-11
-1.02533e-11
3.93129e-11
-3.00037e-11
-3.17741e-11
1.14836e-11
-9.90987e-12
3.86967e-11
2.25697e-13
-1.72654e-11
2.82057e-11
-2.8497e-11
-3.76296e-21
1.84382e-11
6.43224e-12
-1.02727e-12
8.6909e-12
2.10794e-11
-2.5092e-11
-1.51643e-11
1.38431e-12
-9.91844e-12
-1.0429e-11
-1.06394e-11
1.23599e-11
-1.19692e-11
1.03549e-11
6.6669e-13
-1.96912e-11
2.09168e-11
2.04568e-11
1.0059e-11
-1.98554e-11
-2.01138e-11
3.39489e-13
-8.31789e-12
-7.67888e-12
2.02175e-11
2.839e-11
-9.6721e-12
9.83446e-13
9.12359e-12
-1.00706e-11
-1.00428e-11
1.19833e-12
-1.30644e-11
2.11312e-12
5.69687e-13
-9.55078e-12
8.92637e-12
1.90632e-11
-1.7858e-11
-1.17063e-11
2.9841e-11
1.87162e-11
8.46268e-13
-2.09542e-11
1.1455e-11
-1.0812e-11
-2.12786e-11
1.34717e-11
1.01866e-11
-9.40239e-12
1.29018e-11
2.17081e-11
-2.19549e-11
1.04699e-12
-1.13703e-11
-2.94557e-11
3.01001e-11
2.04128e-11
-1.034e-11
-2.0553e-11
5.74016e-13
1.01529e-11
-8.27804e-12
1.04119e-11
1.88716e-11
8.60122e-12
-9.39701e-12
-2.05581e-11
1.01853e-11
4.18887e-13
-9.61298e-12
-2.01639e-11
-8.5987e-12
2.22489e-11
2.11014e-11
-1.12968e-11
-1.33241e-21
9.27436e-12
-1.90443e-11
-1.13095e-11
1.80697e-11
7.90273e-12
-2.1222e-12
8.98432e-12
1.81934e-12
5.81034e-13
-1.04483e-11
8.97943e-13
-7.45464e-13
1.28337e-12
1.15516e-11
-9.35427e-13
-2.11074e-13
8.57592e-13
-3.01331e-11
-6.81446e-13
3.15843e-11
-1.04161e-11
1.0269e-11
1.08392e-11
-8.51921e-12
-8.3777e-12
-8.63944e-12
-1.67678e-11
-1.14783e-11
2.8502e-11
9.88694e-12
-2.89409e-13
-1.21909e-13
1.01703e-11
1.11959e-11
-1.01262e-11
1.91204e-12
-3.16406e-11
-3.47759e-13
9.27309e-12
1.91025e-13
1.03222e-11
-9.52237e-12
9.25598e-12
8.18273e-12
9.95748e-12
1.20745e-11
-3.81119e-11
-1.77976e-11
2.09097e-11
-1.85925e-13
1.09927e-11
-4.93532e-13
6.73074e-13
-1.06012e-11
-8.2931e-13
-1.00429e-11
3.4817e-12
4.04494e-11
-3.2456e-11
-2.10841e-11
1.0722e-11
5.20758e-14
3.00496e-11
8.76292e-12
-1.08257e-11
-1.13585e-11
-1.8063e-11
1.96798e-12
1.94343e-11
0
-3.31717e-13
-2.1961e-11
1.79513e-13
9.6709e-12
4.58974e-13
-1.26378e-13
-2.13182e-11
-2.07426e-11
2.00207e-11
3.79613e-14
-2.99957e-11
3.45646e-11
3.2868e-11
0
-3.27978e-11
-7.53769e-12
3.01621e-11
-1.20485e-13
1.14908e-11
1.04688e-11
-1.04032e-11
-6.37821e-14
2.67422e-13
-1.99549e-13
-1.02141e-11
9.98028e-12
8.17484e-12
-2.05222e-11
2.82689e-12
1.03272e-11
8.59347e-13
-1.03526e-11
-2.19483e-11
-2.00017e-12
-1.24355e-11
1.02409e-11
3.00599e-11
-1.89849e-11
-6.62697e-14
8.72875e-12
-1.15392e-11
1.10526e-11
-1.97262e-12
-1.09792e-11
-3.83937e-13
-2.13571e-11
-2.08618e-11
1.95856e-11
1.22655e-11
-3.16303e-12
2.10796e-11
1.05128e-11
-9.66149e-13
5.89405e-13
1.60532e-13
-1.07906e-11
-3.35744e-11
-1.30046e-11
9.50869e-12
2.13879e-11
2.15131e-11
-7.43789e-14
-3.24178e-11
-1.09735e-11
2.17974e-11
-1.17181e-14
-1.06159e-11
-2.16472e-11
-1.22688e-11
2.23754e-11
1.07505e-11
-1.05316e-11
4.12727e-13
2.19165e-11
9.72371e-12
1.41667e-11
-2.28296e-11
-1.82996e-11
2.44703e-11
-2.66454e-12
-2.25737e-11
-2.47812e-14
1.11837e-11
9.18925e-12
1.10427e-11
9.93736e-12
2.36382e-12
-9.83813e-12
-2.06395e-11
2.73952e-13
-1.03947e-11
-7.468e-13
2.07132e-11
-1.63417e-13
-2.24427e-11
-2.22823e-11
1.1696e-11
9.61739e-12
2.17434e-11
-3.59227e-13
1.14714e-11
1.17358e-11
2.32069e-11
2.32226e-11
5.98591e-14
1.59351e-13
-1.65399e-13
-3.24594e-13
-1.25314e-11
-1.09944e-12
-3.82075e-13
-1.79563e-13
3.69409e-13
-2.15864e-11
9.58641e-12
1.09712e-11
-1.25233e-11
1.33707e-11
-2.08122e-11
-1.12161e-11
2.03568e-11
1.1185e-11
2.07112e-11
-1.00912e-11
-1.13566e-11
-4.42712e-13
-1.41849e-13
9.7369e-12
-1.15528e-12
-1.07103e-11
3.15574e-13
1.06396e-11
1.04327e-11
-3.70856e-13
-2.32024e-11
-1.27815e-12
-1.14258e-11
2.30431e-13
2.19588e-11
-2.3003e-11
-2.23234e-11
-4.87565e-13
-2.38451e-11
-1.14041e-11
3.7585e-11
1.20889e-11
2.40807e-14
-1.23469e-11
-3.11795e-13
1.13289e-11
1.96251e-13
-5.75592e-15
-1.08683e-11
-2.10297e-11
2.1853e-11
2.07661e-11
-2.10857e-11
-1.92573e-11
9.293e-12
1.25581e-11
6.99699e-13
8.67096e-14
-1.10956e-11
-1.06038e-11
1.05285e-11
2.27411e-11
5.48318e-13
1.18693e-11
-1.10709e-11
-1.02202e-11
-1.08046e-11
5.5075e-14
1.16084e-11
1.45847e-12
2.22229e-11
-4.84198e-14
-2.24121e-11
-4.64047e-13
-1.62783e-12
-5.18196e-13
8.32177e-13
-4.27747e-13
-1.55901e-13
-4.21426e-13
-6.79884e-14
-1.11864e-12
8.24062e-13
2.47735e-11
-2.95246e-13
-2.31662e-11
-1.17777e-11
1.68521e-13
1.08107e-11
2.05229e-12
-2.02613e-11
-9.00266e-13
2.1786e-11
1.11816e-11
-2.02325e-11
-3.35013e-13
9.6445e-12
-1.04772e-11
2.11524e-11
-9.60681e-13
-1.01976e-11
-1.03898e-11
-1.40174e-12
1.29946e-11
-2.55623e-11
7.37218e-13
2.28714e-11
-5.938e-13
-1.10249e-11
1.11821e-11
-1.07741e-11
1.13471e-11
-2.2444e-11
-1.16523e-11
4.52513e-11
-2.43502e-13
2.15457e-13
-1.18757e-11
-0.0909009
-0.1169
-0.0125012
0.275163
0.567201
0.574942
0.222826
-0.455721
-0.847648
-0.641239
-0.32454
-0.148863
-0.0394254
0.123437
0.301867
0.298184
0.0994045
-0.11909
-0.361194
-1.14999
-2.13673
-2.01861
-0.863304
0.270969
0.872299
0.873022
0.359022
-0.428342
-1.09889
-1.04413
-0.437216
-0.0974135
-0.0577743
0.679228
0.937749
-1.74215
-3.00999
-1.49427
-0.320446
-0.0765829
0.0687011
-0.682717
-1.03052
-0.162715
1.47864
2.75173
2.49637
0.858289
-0.225178
0.240283
1.12748
1.6407
2.16262
3.2367
4.58966
5.48862
6.01933
6.95053
7.35561
3.29052
-4.48696
-7.48451
-3.49504
1.12055
3.09757
3.23127
1.63767
-2.03781
-5.74167
-5.59316
-1.51303
1.53162
1.00859
1.66822
1.57717
-7.56182
-11.6213
-5.94492
-1.3613
0.233666
-1.13785
-2.38942
-3.27728
-2.75458
-0.64721
2.33543
4.34829
4.20127
2.39103
0.56257
-0.559301
-1.02722
-0.148211
2.29216
5.8848
10.183
14.7101
19.2215
22.6672
20.3987
9.51248
-0.942912
-3.15722
-0.928358
2.36535
6.33082
8.30296
5.78355
1.19107
-0.0852836
3.6137
8.49762
10.4057
9.59531
5.57668
-2.08767
-4.82834
-1.98542
-0.382496
-0.322701
-0.161039
-0.446015
-0.663329
-0.586077
-0.255879
0.246238
0.787244
0.952313
0.538363
-0.0348341
-0.404763
-0.577053
-0.439977
0.0414509
0.799137
1.84265
3.08448
4.43452
6.12954
7.07551
4.41517
0.142711
-1.43392
-1.05677
-0.00306055
1.75478
3.29272
3.23216
1.76482
0.842974
1.50441
2.8915
3.80619
3.93742
3.09806
0.756403
-0.706695
-0.381011
-0.0246791
-0.00170839
0.00275745
0.00607367
0.0107023
0.00818069
-0.0062482
-0.0169148
0.00712584
0.0487452
0.0257016
-0.0126245
-0.00901765
0.00317229
0.00789291
-0.00335596
-0.0183162
-0.00184761
0.0514432
0.0977725
0.23244
0.714161
0.643215
-0.154392
-0.183995
0.0185565
-0.0547409
-0.0140506
0.230602
0.380833
0.222852
0.0234903
0.0579613
0.159591
0.212051
0.229714
0.273954
0.127299
-0.0566238
-0.0262293
0.000584504
-0.00136899
0.000336167
0.00859519
0.0117001
0.00145258
-0.00872188
-0.00938622
-0.00624834
0.00618874
0.00529445
-0.00389454
0.0105458
0.0188766
0.00971869
-0.00477457
-0.0176381
-0.0210761
-0.0100637
0.00965767
-0.000355957
0.0921843
0.206769
-0.0618455
-0.0177418
0.0858663
-0.0387537
-0.0810265
-0.0287005
0.0241126
0.0311274
-0.0053831
-0.0154364
0.00134288
0.00326543
-0.0021296
-0.00126977
0.00916575
-0.00190485
0.00526769
0.00374435
-0.00486439
-0.00118174
0.00224384
0.00194288
-0.00348362
-0.00537302
-0.00242032
-0.000745999
0.00166737
0.00401111
-0.00145256
0.00221542
0.00554057
-0.00202582
-0.00861168
-0.00971197
-0.00786309
-0.00313235
0.003508
0.0113946
0.0125042
0.0836436
0.0020934
-0.0140603
0.0223332
-0.0305962
-0.0291353
-0.00713455
0.000976
0.00355734
0.00287383
-0.00135785
-0.00105972
0.000626729
0.00281739
-0.000179718
0.00223545
-6.65952e-05
0.000952512
0.00248718
-0.00210377
-0.000405513
0.000374305
0.000105791
-0.0013808
-0.00140476
-0.000445526
4.50183e-05
0.00021248
0.00135644
0.000162938
-0.000137852
0.00121076
-0.00124939
-0.00443886
-0.00435648
-0.00259166
-0.000759965
0.00081631
0.00440143
0.00620298
0.0241024
0.0090054
-0.0060445
0.000987173
-0.0125385
-0.00695033
-0.00109467
2.95534e-05
0.000112881
0.000157917
0.000138588
-2.554e-05
7.95458e-05
0.000119782
0.000363706
0.00068378
0.000234516
-0.00019933
0.000183311
-0.000226113
-4.25958e-05
4.73934e-05
-4.80621e-05
-0.000303992
-0.000241826
-8.53271e-05
6.30925e-07
-4.21489e-06
0.000215273
0.000184383
-0.000133732
0.000291006
-0.000271791
-0.00134221
-0.00121059
-0.000586946
-0.000154929
0.000227807
0.00101595
0.00236741
0.0063785
0.00344973
-0.00176217
-0.000696834
-0.00332405
-0.00148237
-0.000178084
-4.66318e-06
2.03057e-06
2.09326e-08
8.76262e-07
1.30504e-06
1.06111e-05
3.31467e-05
5.6249e-05
3.8622e-05
0.000107988
-4.23714e-05
-5.71073e-05
-8.58879e-06
4.13743e-06
9.20104e-06
-2.37938e-05
-4.89821e-05
-2.79417e-05
-1.12068e-05
9.26119e-07
2.68557e-06
1.49735e-05
4.63511e-05
-2.13897e-05
5.72953e-05
-4.25183e-05
-0.000279271
-0.000212254
-6.35824e-05
-6.16357e-06
3.94769e-05
0.000207917
0.000415431
0.00138534
0.000859896
-0.000314439
-0.000289454
-0.000712893
-0.000261666
-3.16379e-05
-3.483e-06
-8.54428e-07
-2.60384e-08
4.29283e-09
1.40716e-07
4.29191e-07
2.48728e-06
1.32142e-06
4.10824e-06
1.30702e-05
-4.9921e-06
-8.56896e-06
-4.69561e-06
-1.02685e-07
-1.65201e-06
-4.57959e-06
-3.77297e-06
-1.65953e-06
-4.98493e-07
-1.82401e-07
1.77898e-06
1.42096e-06
4.06938e-06
-1.54882e-06
7.18814e-06
-9.69237e-06
-3.3291e-05
-1.63951e-05
-2.74395e-06
3.22946e-07
4.61837e-06
1.8583e-05
5.69781e-05
0.000179867
0.000154122
-3.458e-05
-7.6631e-05
-0.000107962
-3.30552e-05
-4.54996e-06
-9.03881e-07
-7.11582e-08
-4.2698e-10
2.39689e-10
1.50796e-09
6.73513e-09
7.94374e-09
1.15552e-07
1.22759e-06
8.42434e-08
-2.35792e-07
-1.89241e-07
-4.20372e-07
8.07689e-07
8.286e-07
-1.05693e-06
-9.8756e-07
-3.11662e-08
-2.29522e-09
-2.28831e-08
5.63148e-09
2.45178e-07
5.36794e-07
1.55617e-07
-2.91658e-07
-3.92348e-07
-8.37184e-07
-1.50834e-06
-8.32135e-07
1.95214e-07
9.95799e-07
7.51528e-07
1.85961e-06
1.23462e-05
1.74319e-05
-2.28172e-06
-9.39922e-06
-1.01203e-05
-4.06068e-06
-1.02511e-06
-4.07872e-09
1.26612e-11
-3.20912e-11
1.78263e-12
-1.04543e-11
2.61229e-11
1.33263e-10
1.26487e-09
2.03271e-10
4.24638e-08
1.72505e-09
-4.34927e-08
5.915e-08
1.1702e-09
-1.54483e-07
-1.90653e-07
-5.50133e-09
-5.87935e-11
3.05099e-11
1.01263e-11
1.68335e-10
5.69529e-10
1.0599e-10
3.16135e-08
2.10799e-09
-1.15772e-08
-1.70246e-07
-7.85151e-08
1.73794e-12
9.02169e-10
9.34894e-10
3.69091e-07
1.20932e-07
1.15972e-06
1.06152e-06
-8.48942e-07
-1.18501e-08
-7.23171e-07
-9.54648e-07
-4.1757e-09
4.24156e-12
1.22775e-11
1.34783e-11
-1.90536e-11
-8.9126e-12
-2.34024e-11
1.03292e-11
3.03866e-11
-7.03248e-12
-2.65745e-13
-3.45126e-13
-4.21643e-11
1.92993e-10
-3.26504e-11
-1.92063e-10
-3.61049e-10
-2.71035e-11
3.89145e-11
9.98157e-12
-1.20972e-12
-4.19321e-11
1.50147e-11
4.10407e-11
-1.92574e-11
1.70081e-11
-2.75779e-10
-2.40938e-10
-1.42931e-11
1.41088e-12
2.40128e-11
5.6752e-12
4.22721e-11
4.15434e-11
2.69092e-10
9.34708e-08
1.45888e-09
-1.80307e-08
-1.23646e-07
-3.69115e-10
-1.87698e-11
-3.48716e-11
1.86637e-11
2.7358e-11
9.42356e-12
-3.37903e-12
-2.82861e-12
-1.72362e-11
-1.93476e-11
2.32496e-11
-2.04536e-11
-1.20722e-12
4.44874e-11
-2.29003e-11
-1.20091e-11
9.40123e-12
-2.08827e-11
-8.44511e-12
2.04264e-11
2.14952e-11
2.95088e-11
-1.72269e-11
-3.35984e-11
2.34821e-11
8.99695e-12
-1.91613e-11
1.27038e-12
1.7651e-11
8.11892e-12
-1.70341e-11
-9.37257e-12
2.07423e-13
1.72698e-12
1.02884e-11
-6.65749e-12
-7.92295e-12
-1.589e-11
-2.04571e-10
-2.53632e-12
-1.12957e-11
-1.46369e-11
-2.09564e-12
-1.40623e-12
-8.13745e-12
8.92753e-12
2.92931e-11
-5.67117e-13
-1.76602e-11
-2.25071e-11
2.03029e-11
3.37016e-11
-2.4491e-11
-2.21853e-11
9.92393e-13
1.04746e-11
1.14483e-11
3.76023e-13
1.06792e-11
-2.18218e-11
-6.77645e-13
-1.98039e-11
-2.88125e-11
1.92403e-11
3.00759e-11
-1.00268e-11
1.88526e-11
-7.3769e-12
-2.44471e-11
2.31444e-11
-1.8222e-11
-1.77438e-11
9.14732e-12
1.86226e-11
1.97625e-11
-1.9866e-11
-8.76253e-12
-8.20581e-12
-2.47136e-13
7.80737e-12
7.30994e-12
-6.73005e-12
-2.13722e-12
1.76651e-11
-1.00419e-11
-3.24015e-12
-9.94035e-12
2.50735e-12
2.15004e-11
1.0585e-11
-2.27221e-11
-3.56057e-11
2.17431e-11
2.99075e-11
-2.24944e-11
-2.03858e-11
-2.15414e-11
-1.08896e-11
2.09338e-11
2.13775e-11
-1.05679e-11
-8.97994e-16
9.74687e-12
-6.34456e-13
-3.72134e-13
1.03328e-11
-8.91431e-12
-1.2609e-12
-2.97569e-12
-7.95623e-12
8.89771e-12
1.1116e-11
2.56543e-13
-1.0038e-11
4.38307e-14
2.75172e-14
1.03586e-11
-1.74902e-12
-1.92317e-11
-1.41287e-12
1.12234e-13
9.29292e-12
1.9167e-11
-1.14816e-11
-9.20113e-12
8.50296e-12
8.89775e-12
8.07697e-12
-9.9634e-12
8.30326e-14
1.17671e-11
-3.2421e-11
-5.68028e-13
1.914e-11
1.02429e-12
7.38724e-13
-9.91624e-12
-5.98021e-13
-9.17234e-13
-3.09553e-11
1.97058e-11
1.14402e-11
-3.13415e-11
2.13531e-11
2.10332e-11
-2.04633e-23
9.96151e-12
7.93856e-13
-1.73092e-11
1.53973e-12
1.01995e-11
7.39736e-14
-1.89017e-11
-4.72458e-13
1.99099e-11
5.32914e-15
-9.62788e-12
-2.00905e-11
9.83415e-12
2.15795e-11
-6.92059e-13
4.01518e-13
1.15042e-11
-2.15154e-11
-1.11178e-11
1.98246e-11
3.01852e-13
0
-1.06948e-12
-1.12274e-11
1.33225e-12
-4.4933e-26
-2.07983e-11
1.13885e-11
2.03396e-11
1.09849e-12
0
-2.94844e-12
-2.47173e-11
1.16027e-13
1.96051e-11
1.24887e-12
-1.16217e-11
-6.62699e-13
1.05968e-11
1.03468e-23
-6.0719e-14
-2.4488e-12
-9.14168e-12
1.16015e-12
-9.42282e-13
-1.97807e-11
-1.96525e-11
1.95343e-11
1.92166e-11
-1.10516e-13
1.00071e-11
5.29732e-13
-9.63414e-12
1.56199e-12
1.00938e-11
-1.0893e-11
-2.09031e-13
1.17798e-11
-1.28671e-11
1.27363e-12
1.04598e-11
2.6385e-12
-4.83724e-12
-2.74144e-11
5.99533e-12
3.91324e-11
3.03705e-13
-9.81908e-12
-1.32137e-12
2.14837e-11
-3.17542e-11
6.03035e-13
2.01893e-11
1.29494e-12
0
-1.41391e-11
2.1081e-12
9.47033e-12
2.4633e-13
5.49114e-14
-1.03326e-11
-3.70151e-12
9.60559e-12
-1.2969e-13
-7.79259e-13
1.12061e-12
-1.99015e-11
-2.89883e-11
9.88791e-12
2.99638e-11
9.15517e-12
-4.47863e-13
2.0621e-11
-3.10403e-11
-2.10783e-11
3.17295e-11
-2.13113e-11
1.2043e-11
1.23596e-11
-1.19098e-11
-1.09678e-11
-3.20033e-11
2.964e-11
2.62898e-11
-6.72913e-12
-9.27132e-13
-9.5491e-12
-2.01188e-11
2.06355e-11
-2.33105e-13
-3.27303e-11
-1.11161e-11
-1.05851e-12
9.57388e-12
1.10118e-11
1.81038e-12
9.61392e-12
-1.07057e-11
-2.7584e-13
1.06088e-11
-3.11722e-11
-5.13273e-13
2.32755e-11
-1.08021e-11
1.88065e-11
-1.84321e-11
-2.08605e-11
3.07728e-11
-2.00822e-11
1.20488e-12
1.87802e-11
-7.62898e-13
-5.06521e-13
-3.00124e-11
1.15461e-11
-1.25874e-12
1.64546e-12
3.1928e-11
1.80789e-12
-1.50326e-12
-4.81679e-13
-1.20137e-11
-1.16986e-12
1.0464e-11
9.91163e-12
-1.28385e-11
-9.96566e-12
9.65478e-12
1.01226e-11
1.08673e-11
-1.72805e-13
1.10781e-11
-2.34172e-11
5.32674e-13
4.62529e-13
1.32996e-12
1.0675e-11
8.17173e-13
1.06819e-11
9.34332e-23
-1.22031e-11
1.49024e-11
-1.6526e-12
-3.4777e-12
1.33775e-11
-1.91755e-11
-1.85624e-11
9.87202e-12
3.08715e-11
-2.84069e-11
-1.02274e-11
1.12712e-11
9.39e-12
-1.10343e-11
-3.90982e-11
3.96369e-11
2.03815e-11
-3.11088e-11
-1.07459e-11
1.36089e-11
1.09145e-11
1.35162e-11
-7.18875e-13
-1.15156e-11
-2.03807e-12
2.31104e-11
-3.0855e-13
-3.17736e-11
1.12551e-11
2.39373e-13
-2.24261e-11
1.19883e-11
3.40531e-11
-1.8155e-14
-2.25291e-11
-7.25538e-13
1.26306e-11
-4.53057e-13
2.20748e-13
-2.19819e-11
1.03306e-11
1.04015e-11
-1.24831e-11
1.25595e-11
8.68695e-12
-2.32301e-12
-7.72238e-12
1.57687e-13
5.14849e-14
-2.14784e-12
2.20271e-12
-4.26819e-13
-9.48614e-12
-1.89923e-12
1.22654e-11
5.00307e-13
-2.17029e-11
-3.56166e-13
-1.1812e-11
-3.83906e-13
-1.16419e-11
1.32375e-12
4.417e-11
3.1031e-13
-4.94647e-13
-3.23087e-11
-1.12223e-11
2.22683e-11
1.11538e-11
-3.58509e-11
-4.94663e-11
-4.03455e-13
4.85387e-11
2.47436e-11
4.85207e-13
-2.32355e-11
2.19122e-13
2.30822e-11
-1.13648e-11
-5.58104e-14
-2.19347e-11
-1.45334e-12
3.15539e-11
-1.83033e-12
-2.15668e-11
-2.92929e-12
-7.04876e-13
-1.3327e-12
-1.88989e-12
-1.84227e-12
1.05973e-11
-1.14047e-11
-1.17e-11
-1.07876e-11
2.16071e-11
1.36358e-11
-2.11275e-11
1.06879e-11
1.14537e-11
-1.12044e-12
-3.32494e-11
-1.16014e-11
4.48311e-11
1.03463e-11
-1.46479e-22
0
-9.98836e-12
1.23864e-11
1.17529e-11
3.67552e-11
-1.22715e-11
-1.37169e-11
-1.30793e-11
1.1294e-12
-2.44264e-11
-1.1274e-11
3.54923e-11
1.20713e-11
6.20359e-14
-4.62901e-11
-2.16639e-11
4.52351e-11
-4.87608e-13
-2.29964e-11
-7.05933e-13
1.16746e-11
9.18817e-13
-2.17823e-11
-1.22438e-11
3.33095e-11
3.20986e-11
-2.21249e-11
-1.10779e-13
8.0882e-13
1.03997e-12
-8.75495e-13
-1.53034e-12
1.07445e-11
3.62651e-13
1.12978e-11
-5.09391e-13
-2.34259e-11
-2.20985e-11
2.1885e-11
1.97915e-11
-1.0613e-11
-2.10683e-11
-1.02859e-11
3.6198e-11
-0.405146
-0.156371
0.0404969
0.107629
0.144937
0.19274
0.146361
0.0829859
0.116522
0.0719995
0.0378125
0.118429
0.272139
0.425946
0.401809
0.174497
0.0489812
0.131369
0.169275
-0.163913
-0.914521
-1.63013
-1.30564
-0.305598
0.483977
0.666245
0.341871
-0.00648868
-0.00263643
0.324475
0.646836
0.601379
0.175312
-0.19201
-0.662815
-1.72565
-1.92051
-1.24042
-0.790692
-0.6026
0.103603
-0.575151
-0.816286
-0.181522
0.898173
1.52528
1.24597
0.612753
0.183874
0.0815203
0.517923
1.48473
2.62174
3.57487
4.03001
4.103
4.60758
5.84708
6.42858
4.28989
-1.31745
-7.58184
-8.34212
-3.64234
-0.238265
-0.713541
-2.99737
-4.4939
-3.53489
-0.179195
3.34582
4.1287
1.26315
-2.47698
-5.30861
-7.8037
-6.67352
-3.46512
-1.29656
-0.0151084
-1.14211
-4.2396
-5.92525
-5.29875
-3.5419
-2.06888
-1.30185
-1.17158
-1.85029
-2.73663
-2.93474
-1.93817
-0.126051
2.12216
4.92587
8.12523
11.2235
14.3371
17.574
18.2766
11.8519
0.561697
-5.34156
-3.87757
-2.28065
-3.37158
-5.89779
-7.64618
-6.56328
-2.10253
3.96752
8.26037
8.44115
5.44696
1.18788
-2.29779
-2.07628
0.555476
1.91972
1.19279
-0.235232
-0.926014
-1.3985
-1.3598
-1.08274
-0.822646
-0.630845
-0.523786
-0.580163
-0.81073
-1.02215
-0.965175
-0.611501
-0.0332012
0.811684
1.87395
2.89893
3.86738
5.23612
6.62487
5.60656
1.65124
-1.11372
-1.17476
-0.804703
-0.960161
-1.59312
-2.21177
-2.01597
-0.782732
1.01716
2.67008
3.34862
2.83941
1.59796
0.247044
-0.25012
0.0967891
0.430321
0.277358
-0.00790617
-0.00282973
0.00559163
-0.00700423
-0.0229174
-0.0327428
-0.0351538
-0.0322572
-0.0312508
-0.0382717
-0.0403962
-0.0261252
-0.0100748
-0.00521497
0.00281302
0.0325041
0.082665
0.126376
0.209657
0.57581
0.773107
0.171967
-0.247326
-0.101439
-0.0463428
-0.0723223
-0.110727
-0.174925
-0.148871
-0.0411452
0.044607
0.147718
0.252178
0.239498
0.138218
0.0200831
-0.0187232
-0.000820448
0.0230491
0.0200477
0.00275205
0.0201961
0.0224975
0.000227867
-0.0144074
-0.0175426
-0.0152939
-0.0108296
-0.00766694
-0.00230323
0.0111927
0.0251798
0.0221466
0.00141456
-0.0207379
-0.0301818
-0.0227964
-0.00482336
0.00263417
0.0276686
0.165442
0.0544428
-0.0770331
0.017893
0.00794105
-0.0288256
-0.00786596
0.0145565
0.0229972
0.0163639
-0.000525219
-0.0120106
-0.00172499
0.00878019
0.00455258
-1.38003e-05
0.00502483
0.00137397
-0.00309854
0.00205756
0.000904308
0.00806168
0.000692135
-0.0164405
-0.0211783
-0.0168264
-0.0116118
-0.00747445
-0.00566224
-0.00398258
0.00128954
0.00842205
0.00729287
-0.00403772
-0.0134772
-0.0114479
-0.00607799
-0.00209195
0.00251123
0.0012922
0.0257364
0.0362251
-0.0136999
0.00168177
0.00119662
-0.0126055
-0.00312501
0.00721728
0.00793624
0.00368809
0.00160125
0.000699111
-0.00014416
0.000776156
0.000957219
-0.000409744
0.000770399
0.00134954
-0.00160613
-0.000160263
0.000134259
0.00218185
-0.00118486
-0.00850259
-0.00981653
-0.0071248
-0.00469302
-0.00321386
-0.00226455
-0.00149971
-0.000491973
0.000898277
0.000978962
-0.00125736
-0.00309631
-0.00227058
-0.000850639
-0.000332251
-3.80956e-05
0.000991321
0.00124482
0.00806717
-0.000244327
-0.000667076
-0.00130827
-0.00370758
-0.000752809
0.00162345
0.00146077
0.00063742
0.000265168
0.000127529
2.02958e-05
1.6801e-05
0.000247526
0.000235719
-0.000162628
-6.35412e-05
-0.000161335
1.47678e-05
-3.89132e-06
0.000450508
-0.000294514
-0.00222745
-0.00251057
-0.00178212
-0.00120208
-0.000907921
-0.000622872
-0.000295055
-6.37319e-05
1.71658e-05
-1.70423e-05
-0.000117427
-0.000117228
-7.28868e-05
-3.95351e-05
-6.41961e-06
-4.94622e-06
6.76927e-05
0.00020443
0.000782367
0.000191397
-7.41285e-05
-0.000397158
-0.000851125
-0.00020972
0.000182673
0.000140762
3.79099e-05
6.07707e-06
1.25751e-06
7.64878e-07
9.24739e-07
2.74842e-06
3.36808e-05
-7.52546e-07
-3.10895e-05
1.92447e-05
4.08908e-05
-7.865e-06
7.02191e-05
-7.03567e-05
-0.000368228
-0.000374896
-0.00025609
-0.00017865
-0.000137152
-8.03057e-05
-3.24361e-05
-7.82309e-06
7.43162e-07
-2.13273e-06
1.45001e-05
1.42728e-05
6.72393e-06
2.03276e-06
1.99214e-06
3.12021e-07
9.48957e-06
2.15308e-05
7.91175e-05
2.88973e-05
-9.41703e-06
-6.67718e-05
-0.00014655
-6.41476e-05
-8.16989e-06
-3.16286e-06
-3.2945e-06
-1.22665e-06
-7.54635e-08
-2.10557e-09
2.51106e-09
1.07585e-07
1.46137e-06
8.62748e-07
-3.19971e-06
1.53774e-05
8.42314e-06
-2.64709e-06
5.85286e-06
-1.56147e-05
-3.54577e-05
-2.85527e-05
-1.71152e-05
-7.85726e-06
-6.22939e-06
-3.75765e-06
-7.85814e-07
-5.04843e-07
1.68739e-07
-9.73433e-07
-7.16488e-08
7.51192e-07
2.15921e-07
1.01046e-07
1.94744e-07
4.1274e-07
1.78325e-06
2.49002e-06
7.99751e-06
1.93462e-06
2.80897e-06
-6.41449e-06
-2.28267e-05
-1.36926e-05
-3.39742e-06
-1.23165e-06
-8.17739e-07
-1.63569e-09
9.13517e-10
2.0383e-10
1.36604e-09
5.35312e-10
8.50564e-09
-5.97029e-08
-7.7076e-09
2.77411e-06
-1.44414e-07
-1.00583e-06
-2.8963e-07
-1.78811e-06
-2.09327e-06
-1.19116e-06
2.8786e-07
9.94408e-08
-5.01604e-07
7.22904e-08
4.04484e-08
-2.2628e-08
1.09917e-08
2.95462e-08
5.22575e-08
1.29476e-07
2.61477e-10
8.50995e-10
4.69538e-10
1.36479e-07
2.27931e-08
7.86882e-07
1.66985e-06
-2.05614e-07
-6.42291e-07
-1.56042e-06
-1.49334e-06
-8.28519e-07
-1.02427e-06
7.36912e-08
7.72654e-10
-8.25667e-12
1.91277e-11
2.25161e-11
-2.98544e-11
3.52211e-10
4.67545e-11
4.10103e-10
1.22703e-09
9.86656e-07
8.69065e-07
-1.76865e-07
1.21388e-09
-2.06484e-07
-7.34843e-08
-1.13531e-08
2.21841e-09
6.75043e-08
9.04346e-10
6.46833e-10
1.86431e-10
4.90428e-11
-1.86695e-11
-1.54547e-10
4.71619e-11
2.85101e-11
1.54032e-11
-3.8224e-11
-1.28683e-11
3.50465e-11
2.82171e-10
4.88328e-09
1.11386e-07
2.15339e-09
8.78116e-09
-2.97234e-08
-7.79524e-08
-5.7038e-08
3.1199e-11
-1.31083e-11
2.41358e-11
4.51489e-11
-2.68378e-11
-8.514e-12
-8.36899e-12
-6.70586e-12
2.33418e-11
2.40739e-12
4.38341e-11
1.50407e-09
-8.50942e-08
2.81993e-10
-1.62009e-09
-5.25522e-09
-6.07915e-10
5.23398e-12
4.10367e-11
-1.62704e-12
1.25236e-11
4.26993e-11
-1.02228e-11
-2.6771e-11
-1.64918e-11
1.77527e-11
5.78677e-13
-2.01817e-11
-2.2698e-11
4.17867e-11
3.63889e-11
-3.40714e-11
-8.53092e-12
1.50006e-11
6.94325e-11
8.77906e-11