/*--------------------------------*- C++ -*----------------------------------*\
| =========                 |                                                 |
| \\      /  F ield         | OpenFOAM: The Open Source CFD Toolbox           |
|  \\    /   O peration     | Version:  5.0                                   |
|   \\  /    A nd           | Web:      www.OpenFOAM.org                      |
|    \\/     M anipulation  |                                                 |
\*---------------------------------------------------------------------------*/
FoamFile
{
    version     2.0;
    format      ascii;
    class       volScalarField;
    location    "50.4676134421789371";
    object      Cut;
}
// * * * * * * * * * * * * * * * * * * * * * * * * * * * * * * * * * * * * * //

dimensions      [0 1 -2 1 0 0 0];

internalField   nonuniform List<scalar> 
60000
(
0.000294694
0.000221855
4.53285e-05
-0.000147338
-0.000185168
-0.000101319
-8.00296e-05
-0.00013821
-0.000128561
1.26652e-05
0.000147873
0.000108047
-9.85927e-05
-0.000223909
-0.000158381
-3.12293e-05
2.21619e-05
-4.59245e-05
-0.000214871
-0.000447037
-0.000530796
-0.000341681
-0.000252593
-0.000399218
-0.000393976
0.000171901
0.00116904
0.00191534
0.00150598
0.000259682
-0.000403678
-0.000269598
0.000154736
0.000627745
0.000564948
-0.00032001
-0.000708727
-0.000387676
-1.02507e-05
0.000227333
0.00261645
0.00227354
0.000935657
-0.000377289
-0.000984115
-0.000702872
-0.00044048
-0.000895855
-0.0012641
-0.000457241
0.00123596
0.00218939
0.0011187
-0.000724489
-0.00150189
-0.0010954
-0.000350457
0.000164336
0.000217689
-0.000811354
-0.00276645
-0.00340723
-0.00330862
-0.00422586
-0.00486903
-0.00313079
0.00204209
0.00922966
0.0125409
0.00715949
-0.000523224
-0.00293635
-0.000975544
0.00291972
0.00607271
0.00304406
-0.0029078
-0.00379219
-0.0014354
0.00121327
0.000986356
0.00135957
0.000770976
0.000259002
-4.68685e-05
-0.000253704
-0.000283369
-0.000470506
-0.000853344
-0.000777027
0.000240108
0.00147245
0.00143649
0.000176007
-0.00083014
-0.000982204
-0.000678099
-0.000436203
-0.000518269
-0.000882448
-0.00165971
-0.00155177
-0.000497119
-0.000980533
-0.00369348
-0.00715078
-0.00817237
-0.00432258
0.00165569
0.00341251
0.000523605
-0.00203681
-0.00232318
-0.000828096
0.00180407
0.00263207
3.9691e-05
-0.00209615
-0.00200579
-0.000549539
-9.95202e-05
0.00022218
0.000144353
7.11672e-06
-2.36622e-05
-7.90667e-06
-1.8994e-05
-7.34634e-05
-0.000165653
-0.000256006
-0.00010555
0.000328508
0.0004184
4.15638e-05
-0.000170263
-0.0002165
-0.000323053
-0.000272951
-0.000180351
-0.000447156
-0.000701037
-0.000238593
0.000768986
0.000642798
-0.000874561
-0.00288704
-0.00423607
-0.00363189
-0.00115574
0.000389141
-0.000111747
-0.000807324
-0.00090437
-0.000736683
-0.000170465
0.000364323
-1.39544e-05
-0.00045166
-0.000615147
-0.000545094
-5.6899e-05
-2.15654e-06
-2.09793e-05
-3.63588e-05
-4.31079e-05
-1.1157e-05
4.74927e-05
4.42169e-05
5.90156e-06
-3.45179e-05
-5.34162e-05
4.94139e-05
4.61497e-05
-6.5937e-05
9.1788e-05
0.000163437
-6.70349e-05
6.49625e-06
0.00050117
4.73359e-05
-0.000599184
-0.000145669
0.000606109
0.000303176
-0.000349048
-0.000582709
-0.000670493
-0.000747717
-0.000155501
0.000478116
7.86727e-05
-0.000349738
-0.000216709
1.63078e-05
9.00155e-05
6.99734e-05
-8.18984e-05
-5.86324e-05
5.0411e-05
-3.27974e-05
2.68623e-05
-5.01574e-06
-3.02741e-05
-3.24915e-05
-3.423e-05
-3.48327e-05
1.01134e-05
4.03674e-05
2.89158e-05
1.88554e-05
-7.57784e-06
8.95192e-06
3.07423e-05
-2.66111e-06
0.000129207
0.000214958
-1.42537e-05
-9.89506e-05
0.000680671
0.000562597
-0.000684191
-0.000286894
0.000604347
4.45663e-05
-0.000533355
-0.000310234
-1.84992e-05
-5.78358e-05
-0.000222483
4.42469e-05
0.000192623
-9.65311e-05
-0.000224619
-4.59057e-05
0.000159937
0.000134339
-3.45243e-05
-4.39209e-05
9.26001e-05
0.000104032
3.7428e-05
1.23593e-05
-4.03287e-06
-1.13832e-05
-1.39421e-05
-2.71305e-05
-1.9362e-05
3.95578e-06
1.13928e-05
1.63174e-05
9.54588e-06
-2.04346e-06
1.66768e-05
4.17603e-05
9.50865e-05
0.000109118
2.46866e-05
-0.000133597
0.000498548
0.00104312
-0.000506781
-0.00063629
0.000299305
-0.000112431
-0.000396368
-0.000135975
-2.00636e-05
5.99273e-05
-1.18365e-06
-0.000129825
-2.77006e-05
7.13128e-05
-4.60956e-05
-0.000132646
-8.89952e-06
0.000101208
4.16088e-05
-1.92143e-05
1.97353e-05
5.48852e-05
1.41308e-05
8.94357e-06
3.18516e-06
-2.90472e-07
-2.15683e-07
-3.463e-06
-8.96371e-06
-9.18862e-06
-3.64608e-06
7.10095e-06
1.1821e-05
-4.86174e-06
9.5913e-07
3.07923e-05
4.18329e-05
1.5997e-05
5.1164e-05
-2.93644e-05
0.000174098
0.00098957
-0.000131096
-0.000808414
-1.93991e-05
-1.18385e-06
-0.00011386
-2.60069e-05
-1.70748e-05
-1.00135e-05
2.66889e-05
3.04005e-06
-5.57819e-05
-2.61504e-05
2.85139e-05
-1.19426e-05
-4.64813e-05
3.07999e-06
2.9442e-05
8.6396e-06
3.08645e-06
1.18606e-05
2.9474e-06
2.83126e-06
2.10604e-06
1.13203e-06
3.6978e-07
6.41179e-08
5.41462e-07
-1.33875e-06
-3.09258e-06
4.37328e-06
1.34754e-05
-2.80194e-06
-7.75298e-06
1.73488e-05
8.42893e-06
-2.62287e-05
2.72723e-05
4.90489e-05
1.19479e-05
0.000499234
9.44531e-05
-0.000586514
-9.11873e-05
0.000119006
2.33383e-05
1.41779e-08
-1.29839e-07
-4.80206e-06
-3.64721e-06
7.20248e-06
2.06626e-06
-1.56766e-05
-1.0663e-05
6.43814e-06
-2.43905e-06
-9.99021e-06
2.02907e-06
6.2344e-06
2.42739e-06
1.9967e-06
1.94544e-07
1.06388e-06
1.45358e-06
6.54273e-07
1.08492e-07
-4.84159e-08
2.87172e-08
4.30898e-07
-3.24877e-07
1.69807e-06
1.12739e-05
1.49357e-06
-8.4853e-06
6.67781e-06
1.37138e-06
-2.02024e-05
-1.60863e-06
3.2695e-05
3.17773e-06
0.000122466
9.47885e-05
-0.000256255
-6.2032e-05
0.000109706
5.04978e-05
6.57783e-06
-1.2382e-06
5.92476e-07
-6.41108e-07
-1.00081e-06
1.06151e-06
1.67028e-06
-1.86558e-06
-2.8563e-06
3.64479e-07
-8.85341e-07
-1.48981e-06
5.66222e-07
9.9628e-07
5.47652e-07
-3.66117e-08
2.6384e-07
4.19017e-07
1.21118e-07
-8.20721e-10
-4.99882e-09
-2.45411e-08
5.21571e-08
9.92909e-08
3.88713e-08
3.42125e-06
2.08324e-06
-3.4743e-06
1.28843e-06
1.2487e-06
-5.60094e-06
-5.52928e-06
6.12644e-06
5.44756e-06
1.10356e-05
3.29324e-05
-7.01282e-05
-2.34207e-05
5.0705e-05
2.88371e-05
4.47235e-06
-9.9627e-08
-5.2901e-07
1.90998e-07
-3.68108e-08
-4.71254e-08
6.1326e-08
2.69972e-07
-6.53312e-08
-1.09835e-07
3.53116e-09
-1.24896e-07
6.07443e-09
1.37202e-07
4.35334e-08
-1.02752e-08
1.63947e-07
2.16649e-07
1.54657e-08
-7.67468e-10
5.23474e-10
-8.5022e-10
-3.80899e-09
1.89231e-08
5.54413e-09
1.25076e-06
3.31826e-07
-2.29326e-06
1.80572e-07
1.34212e-06
-4.43053e-07
-1.52545e-06
3.74031e-08
1.11413e-06
3.23272e-07
5.06199e-06
-1.17645e-05
-4.98932e-06
1.26438e-05
8.18863e-06
1.41135e-06
9.88597e-08
1.83274e-09
-3.19178e-12
1.49579e-09
-1.77301e-09
-1.68491e-09
6.64941e-10
2.16722e-09
-1.92446e-10
-1.73685e-10
-2.06033e-09
8.29833e-11
4.98617e-09
-2.2795e-09
9.71274e-11
4.53174e-09
7.10609e-09
3.05945e-10
-1.09388e-11
3.227e-12
9.88157e-13
5.02477e-12
-9.15195e-10
4.86968e-09
5.62528e-08
1.36699e-07
-2.19017e-07
3.79795e-08
8.46667e-08
-1.00352e-07
-3.31753e-08
1.39477e-09
2.36628e-07
9.43797e-08
4.65167e-07
-1.20689e-06
-6.62656e-07
1.47489e-06
1.03403e-06
4.81996e-07
1.0961e-08
7.94326e-11
-1.12271e-11
-7.40479e-12
6.10393e-12
7.62718e-12
-3.04564e-12
-1.08989e-11
-5.3737e-14
1.21281e-12
-1.89365e-12
-2.16613e-11
5.85107e-11
-1.34783e-10
-2.22536e-12
8.65429e-12
2.48619e-11
4.07312e-13
-3.31125e-14
3.63995e-14
-2.11311e-14
1.72716e-13
1.67884e-12
-5.30499e-11
1.26459e-09
-1.33353e-08
-2.45975e-08
3.44841e-08
1.51689e-08
-1.94563e-10
-6.69236e-10
-6.95561e-09
6.02232e-09
2.93487e-08
2.03819e-08
1.54938e-08
9.13119e-09
8.09236e-08
1.84977e-08
2.359e-09
9.23552e-11
1.60522e-12
1.01351e-13
2.38428e-14
-1.0483e-14
-2.16025e-14
8.79362e-15
4.85636e-14
1.40215e-15
-4.12858e-15
1.61094e-15
-8.38572e-14
4.37045e-13
-1.41527e-12
-2.50872e-14
-3.58123e-14
-4.13028e-14
8.9296e-15
3.93919e-15
4.51956e-16
1.4879e-16
-1.16355e-15
-2.97445e-16
1.06935e-13
2.51835e-12
-3.52093e-11
6.00441e-10
2.26811e-09
3.03294e-10
1.19074e-11
-8.25519e-13
1.66653e-12
-4.90322e-10
2.47376e-10
-6.93336e-11
-9.71449e-12
9.8771e-11
9.97501e-10
2.65843e-10
1.81583e-11
5.25136e-13
7.14769e-16
-8.49746e-16
-6.18349e-17
1.58673e-17
7.24373e-17
-6.52302e-17
-1.65315e-16
9.29405e-17
-5.44108e-17
-4.67408e-17
-1.1216e-16
1.6786e-15
-6.52855e-15
-1.22113e-16
-3.03292e-16
-2.8757e-16
1.04844e-16
3.4482e-20
-2.34152e-17
8.57776e-18
6.69893e-18
-2.12657e-17
-1.35111e-16
8.08081e-15
-1.83016e-13
1.42908e-12
2.30174e-11
5.01437e-12
2.58441e-13
-7.95254e-15
-1.04622e-13
2.70882e-12
-2.55051e-12
-4.05886e-13
-3.71116e-13
4.4855e-12
1.31285e-11
2.0509e-12
9.98063e-14
2.41944e-15
5.44056e-17
3.49096e-18
-1.40303e-17
3.45513e-18
2.16283e-17
-7.37809e-17
-1.99844e-17
4.71519e-17
-2.66765e-17
6.07428e-17
2.86432e-17
1.10053e-17
-4.74917e-17
-1.35681e-17
-1.40511e-17
-1.88087e-18
1.05449e-17
2.7846e-17
-6.58531e-19
-1.8717e-17
3.61881e-19
3.75497e-18
5.59713e-18
1.91983e-17
-5.15097e-16
1.80465e-15
1.77243e-13
5.3244e-14
2.02861e-15
-1.90094e-16
2.54515e-16
-6.57848e-15
8.48161e-15
3.3617e-15
5.60994e-16
2.24102e-14
6.56406e-14
4.47519e-15
-4.39837e-16
-6.62427e-17
-2.27694e-17
4.60484e-17
1.24962e-17
-9.18451e-18
3.44392e-17
4.11748e-17
-1.7424e-17
-2.44691e-17
-7.2134e-17
-3.13248e-18
6.30354e-17
-1.81738e-17
2.83644e-18
1.29822e-18
-8.53747e-18
4.25562e-17
5.68159e-17
-1.98895e-19
-5.56958e-17
-3.22289e-17
4.58081e-18
-5.84173e-18
1.35976e-17
-1.77702e-17
-3.71531e-17
-6.02991e-17
1.12797e-15
3.71745e-16
5.25199e-17
-1.01505e-17
-5.46429e-17
3.44588e-17
-3.71984e-18
-4.01132e-18
1.65989e-17
5.13886e-18
-1.16261e-16
-8.07418e-17
-3.04441e-17
-5.82699e-17
1.70944e-17
6.38513e-17
-2.10095e-17
-1.40146e-17
5.44083e-18
9.14561e-18
3.70044e-18
-2.37489e-17
-4.4752e-17
3.74891e-17
4.92384e-17
-9.46247e-18
2.03537e-18
4.86138e-18
1.20562e-17
4.81313e-17
1.27396e-17
-3.551e-17
-1.48359e-17
-1.34774e-17
-2.49814e-17
7.29562e-18
3.69106e-17
9.71371e-18
-4.01087e-17
-1.91159e-17
3.01311e-17
3.86969e-17
5.69295e-18
-2.75383e-17
-1.37921e-17
-3.62529e-18
9.20801e-18
5.03574e-19
-2.12058e-17
-2.77243e-18
2.2779e-17
-3.20595e-17
7.32308e-17
3.05711e-17
-8.61777e-17
-9.06892e-18
1.49962e-18
2.38351e-17
-1.08819e-17
2.96463e-17
3.82311e-17
-1.72995e-17
-8.01653e-17
-3.17245e-17
8.56525e-17
1.28618e-18
-2.38434e-17
3.76249e-18
9.57701e-18
6.28339e-18
3.5235e-18
2.48672e-18
-2.19315e-17
-1.68788e-18
9.74342e-18
-1.22296e-19
2.55093e-17
-5.7934e-17
2.74525e-17
8.76835e-17
-4.63935e-17
-1.30833e-17
-6.17645e-18
-1.86346e-17
4.78112e-18
-2.07617e-18
-3.93445e-18
1.06195e-18
4.24353e-18
9.11897e-18
7.74893e-18
-2.609e-17
-1.90358e-17
2.24365e-17
4.09454e-17
3.33252e-17
-5.74569e-17
-4.03519e-17
1.94183e-17
-5.95118e-17
-1.48314e-17
5.17037e-17
3.20019e-17
-4.57669e-17
-2.55982e-17
2.9597e-17
1.51471e-17
-1.1544e-17
-3.75385e-19
2.87012e-18
2.83712e-18
6.4981e-18
-5.6461e-18
9.00319e-19
1.96165e-17
-7.41736e-19
-2.40076e-17
-2.22376e-17
4.28099e-18
-4.76864e-18
3.3193e-18
1.18059e-17
-3.21121e-19
-6.43779e-18
-5.25276e-18
2.03068e-17
6.45378e-18
-1.44409e-17
1.90301e-17
-9.05196e-18
-3.98649e-17
-1.16407e-17
2.15485e-17
2.65227e-17
2.84312e-18
3.57894e-17
-6.36884e-18
-5.51148e-17
-8.83932e-18
1.19078e-17
-2.80544e-17
-1.99743e-17
3.24483e-17
2.37481e-17
-8.56364e-18
3.39324e-18
6.78565e-18
-2.02433e-17
-1.1131e-17
1.59657e-17
6.64367e-18
6.92445e-19
-1.8465e-18
3.8759e-18
7.4358e-18
-2.4159e-17
-9.3519e-18
2.46563e-17
1.1191e-17
-4.07855e-18
2.47238e-18
2.28396e-18
1.21205e-18
7.46055e-19
-4.33558e-19
7.0311e-19
-5.12368e-18
-5.99748e-18
1.68662e-17
1.19229e-17
-2.92365e-18
8.08761e-18
-1.02159e-17
6.70121e-19
-4.92017e-19
-3.41264e-18
3.99411e-18
5.44298e-18
-9.47422e-18
-1.46094e-17
-1.4083e-18
-1.32399e-17
6.83348e-18
1.43888e-17
4.84175e-18
3.40828e-18
4.46598e-18
6.17446e-18
-8.29448e-18
-1.16366e-17
1.23046e-17
-2.47104e-18
8.15547e-19
-1.10608e-17
-1.20753e-18
-5.39561e-19
3.29525e-18
2.13538e-17
3.11242e-18
-9.52513e-18
-2.29966e-18
4.64279e-17
-2.69953e-18
-6.70378e-17
-8.75909e-18
2.04556e-17
1.0368e-17
9.94767e-18
-2.99478e-18
-6.51009e-18
7.36506e-18
-2.43782e-18
-3.1687e-17
-1.24156e-17
1.16617e-17
9.74205e-18
1.83666e-17
-7.16394e-18
-1.21278e-17
1.22055e-17
5.846e-18
-1.20098e-18
-7.97434e-18
-9.77201e-19
1.57662e-17
5.19354e-18
-7.33417e-18
7.70195e-18
2.14513e-18
-3.14506e-18
2.54414e-18
1.04392e-17
-4.60735e-17
-1.05642e-16
4.28177e-17
9.00789e-17
-2.2947e-18
-4.31378e-18
-2.66337e-18
4.09795e-18
1.71916e-19
-4.7141e-18
-8.14611e-18
1.59428e-17
7.83736e-18
-1.02717e-17
5.85973e-18
8.5213e-19
1.10654e-17
-1.0427e-17
-2.78848e-17
4.80708e-19
-3.15485e-18
1.71125e-17
1.42471e-17
-2.07797e-18
6.36395e-18
-7.01193e-18
-1.24228e-18
6.56193e-18
-8.56478e-19
2.30883e-18
-1.6963e-17
-1.14899e-17
7.69683e-18
2.84113e-18
1.18411e-17
-1.46553e-17
-1.26498e-17
1.79311e-19
3.9651e-18
1.41818e-17
5.20773e-17
3.37415e-17
-7.24056e-17
-1.06699e-16
1.78735e-17
6.21039e-17
-2.13064e-18
-1.74958e-17
1.21812e-18
2.83896e-17
1.1133e-17
-1.1768e-17
-1.57172e-18
4.97174e-18
6.8778e-18
2.5142e-17
2.67828e-17
-4.51454e-17
-2.01784e-17
1.95521e-17
-2.00607e-17
2.36045e-18
5.33482e-18
-4.17056e-18
-8.25916e-18
1.00824e-17
5.39977e-18
-5.32372e-18
1.55615e-17
2.11814e-17
-3.22779e-17
-3.05718e-17
2.14988e-17
2.06959e-17
1.89483e-18
-1.54135e-06
-1.4397e-05
-8.72577e-05
-0.000166042
-0.000156859
-4.38299e-05
6.28558e-05
5.08571e-05
-3.96104e-05
-9.31727e-05
-0.000151679
-0.000276237
-0.000402516
-0.000446075
-0.000397648
-0.000272458
-8.77836e-05
0.000154756
0.000442483
0.000456497
-0.000144992
-0.000608183
-0.000357287
1.67077e-05
0.000258716
0.000623368
0.000927653
0.000626351
-0.000196229
-0.00079199
-0.000723859
-0.000115843
0.000777041
0.00170214
0.00200117
0.000538594
-0.000669294
-0.000448216
-0.000131678
-2.66876e-05
3.7672e-05
-9.75397e-05
-0.000698751
-0.00128018
-0.0013649
-0.000748888
0.000296482
0.00082911
0.000264165
-0.000561515
-0.0010607
-0.00168812
-0.00261981
-0.00341573
-0.00370813
-0.0034649
-0.00286475
-0.00186562
0.000929175
0.00521993
0.00441083
-0.001967
-0.00477283
-0.00340006
-0.00123087
0.00225171
0.006253
0.00712385
0.00280805
-0.00326519
-0.00591488
-0.00379
0.00160816
0.00828458
0.0147099
0.0120228
0.000878268
-0.0030976
-0.00166592
-0.000437445
2.74423e-05
0.000109236
-0.000122879
-0.000311737
-0.000513586
-0.000775623
-0.0005917
1.63182e-05
0.000175558
-0.000215928
-0.000419784
-0.00047427
-0.00093545
-0.00182253
-0.00279851
-0.00371421
-0.00465693
-0.00560916
-0.00523177
-0.0012115
0.00236029
-0.00029523
-0.0034
-0.00299508
-0.0020263
-0.0012393
0.000432812
0.00207767
0.00136498
-0.00154847
-0.00435033
-0.00535036
-0.00381795
-0.000270539
0.00468578
0.00741556
0.00313161
-0.00112882
-0.0014477
-0.000572565
-8.97124e-06
5.31092e-05
4.96639e-05
7.07526e-05
2.77516e-05
-0.000152485
-0.000307092
-0.000197548
-1.87865e-05
-1.57029e-05
9.76207e-06
0.000110957
6.99958e-05
-0.000178348
-0.000614443
-0.00118215
-0.0017249
-0.00226065
-0.00253567
-0.0012536
0.000556315
-0.000284281
-0.00122384
-0.000531722
-0.000409354
-0.000951923
-0.000923053
-0.000214917
-2.60732e-05
-0.000705917
-0.00148122
-0.00198924
-0.00199162
-0.00124685
0.000278936
0.00132884
0.000299543
-0.000550025
-0.000390265
-0.000172204
3.15383e-05
8.61988e-06
1.49159e-05
4.18477e-05
2.94758e-05
-1.14294e-05
-3.32082e-05
-1.36146e-05
4.20239e-06
-1.42688e-05
1.74184e-05
9.07256e-05
0.000121248
0.000112978
-1.04282e-05
-0.00021581
-0.000257019
-0.000233393
-0.000290371
0.000266331
0.000864216
-0.000354178
-0.000718247
0.000215805
0.000100575
-0.00046664
-0.000497701
-0.000114749
0.000117527
-2.85892e-05
-0.000159789
-0.000181688
-0.000203616
-0.000143109
0.000171772
0.000360372
-0.00024955
-0.000421657
-1.29819e-05
8.464e-05
8.51433e-05
2.68086e-05
2.24551e-05
3.24141e-05
1.1979e-05
-1.95354e-05
-1.17457e-05
2.66554e-05
1.22295e-05
-2.75169e-05
7.10995e-06
7.65943e-05
0.000107498
9.59152e-05
1.11001e-06
-0.000145682
-0.00011518
2.35782e-05
-1.94395e-05
0.000201973
0.00084267
-0.000203321
-0.000662438
0.000294584
0.000199494
-0.000257147
-0.000267695
-0.000134133
-3.96148e-06
7.87846e-05
6.98166e-05
3.44002e-05
5.80022e-06
-1.69407e-05
6.32979e-05
0.000185756
-0.000190595
-0.000396971
-1.19796e-05
0.0001624
9.00032e-05
4.37108e-05
3.11297e-05
2.01294e-05
-6.29852e-06
-2.39153e-05
-2.02271e-05
2.48253e-05
3.25779e-05
-2.45146e-05
-1.0143e-05
5.12915e-05
7.54011e-05
4.45257e-05
-4.36925e-05
-0.000120971
-8.28029e-05
2.72178e-05
4.92561e-05
7.80101e-05
0.000634468
7.27677e-05
-0.000581561
6.89718e-05
0.000108906
-0.000108636
-6.63548e-05
-2.73928e-05
-3.01678e-05
-1.35181e-05
2.82152e-05
2.94269e-05
2.19921e-05
1.04117e-05
1.41276e-05
0.000122303
-2.24061e-05
-0.000272789
-0.000103864
0.000100569
4.29163e-05
3.60201e-05
2.71331e-05
1.39222e-05
-7.41218e-06
-1.40608e-05
-1.33181e-05
3.12769e-06
3.78977e-05
-3.17265e-06
-2.10849e-05
3.08458e-05
4.92637e-05
6.39898e-06
-5.7885e-05
-7.62403e-05
-4.37902e-05
8.00028e-06
3.23318e-05
4.1754e-05
0.000367492
0.000151576
-0.000398431
-4.85481e-05
6.34427e-05
-1.89405e-05
-1.18942e-05
-3.68481e-06
-1.48895e-06
-6.83376e-06
-6.7546e-06
-4.92381e-06
-1.40206e-05
1.33662e-05
7.22532e-06
4.38258e-05
4.30079e-05
-9.6559e-05
-9.06287e-05
9.81323e-06
2.16518e-06
1.63451e-05
1.89138e-05
1.07559e-05
-2.02784e-06
-5.21825e-06
-3.12558e-06
-5.06334e-06
1.84312e-05
1.3695e-05
-1.72519e-05
9.98668e-06
3.08442e-05
-9.86588e-06
-4.48693e-05
-3.85597e-05
-2.0914e-05
1.28e-06
1.05018e-05
1.84682e-05
0.000178312
9.8393e-05
-0.000222576
-4.58771e-05
4.78499e-05
1.00374e-05
6.39189e-07
-1.29642e-06
-7.33769e-07
3.55276e-07
1.76577e-07
1.91372e-06
-8.20368e-06
-6.77629e-06
4.22166e-06
7.18075e-06
2.09716e-05
-1.34743e-05
-3.50516e-05
-1.57534e-05
-8.54955e-06
1.92492e-06
1.18433e-05
8.46579e-06
2.23116e-08
-3.06703e-06
4.95896e-07
1.40875e-08
2.92565e-06
1.13842e-05
-6.73228e-06
-2.00846e-06
1.30491e-05
-7.31253e-06
-2.11883e-05
-1.19406e-05
-6.90813e-06
-1.84477e-06
1.99739e-06
3.93214e-06
6.90419e-05
4.45126e-05
-0.00010238
-2.16416e-05
3.17226e-05
1.25017e-05
1.99645e-06
-1.49461e-07
-5.2133e-07
-1.26407e-07
-1.22336e-07
6.84804e-07
1.02678e-06
-2.67677e-06
-2.18939e-09
7.09483e-07
4.67891e-06
6.84881e-07
-7.05022e-06
-7.53897e-06
-3.33452e-06
2.90661e-07
4.67542e-06
3.26044e-06
1.12084e-07
-7.8129e-07
-1.84388e-07
8.09779e-07
4.97242e-07
3.07048e-06
-9.99507e-07
-2.74779e-06
2.47437e-06
-9.12813e-07
-4.34704e-06
-1.79315e-06
-1.01418e-06
-1.57023e-06
-5.50381e-07
-6.47123e-07
1.99594e-05
1.62267e-05
-3.72641e-05
-6.23783e-06
1.56472e-05
6.97893e-06
8.86214e-07
-1.56817e-07
-5.81133e-08
-1.0116e-08
-2.08641e-08
-6.0266e-08
1.51676e-07
-6.11381e-08
-2.24935e-07
-3.40673e-07
2.90704e-07
1.05248e-06
-3.64322e-07
-2.1202e-06
-2.3395e-06
-1.4962e-06
2.71833e-06
1.93391e-06
7.43866e-08
-5.27488e-08
-2.58398e-08
3.09187e-08
7.52166e-08
6.84016e-07
2.03705e-07
-9.02561e-07
3.85629e-07
5.40627e-07
-6.49173e-07
-6.8356e-07
1.04207e-07
-4.37646e-07
-2.20801e-07
-2.27141e-07
4.43181e-06
4.27881e-06
-1.01836e-05
-7.28229e-07
5.26616e-06
2.26274e-06
2.03335e-07
-2.05445e-08
-9.23683e-10
2.98188e-11
2.14009e-10
-1.99633e-09
-5.99142e-09
1.2107e-08
-2.20236e-08
-4.88236e-10
-1.1135e-08
3.28159e-08
-1.14284e-09
-3.19626e-08
-6.95543e-08
3.54986e-07
5.02319e-07
8.7914e-08
6.21339e-09
2.93184e-09
1.73301e-10
3.10448e-09
-3.57413e-10
2.90098e-09
3.40968e-08
-6.60854e-08
3.88786e-08
5.6744e-09
-6.59476e-08
-4.70364e-09
5.41648e-09
2.86043e-09
-1.20829e-07
-3.74251e-09
1.24838e-06
6.16976e-07
-1.96728e-06
1.69904e-07
8.38067e-07
5.86209e-07
9.76143e-09
-2.82505e-10
-4.22475e-11
-3.0815e-12
-1.5195e-12
1.0529e-11
5.10646e-11
-1.15621e-10
2.14293e-10
-1.86084e-10
-1.55193e-11
5.74301e-10
-4.22264e-09
-2.09054e-08
1.03933e-09
1.11583e-08
1.56062e-08
8.93897e-10
3.30862e-11
1.23803e-11
5.59907e-12
-7.97279e-12
-1.29309e-10
-2.5898e-10
-2.57072e-11
-7.44898e-10
7.74507e-09
2.21959e-09
-4.18836e-10
-2.52054e-11
-7.18879e-11
5.58799e-10
-5.59469e-10
-6.17863e-09
8.61483e-09
9.60498e-08
-5.9192e-08
9.32994e-08
1.20801e-07
1.13957e-08
5.08764e-10
4.33297e-12
-6.47548e-13
-3.49433e-14
5.01168e-15
-3.26295e-14
-2.74435e-13
7.81645e-13
-1.42232e-12
1.03912e-12
-8.61876e-14
4.20671e-12
-3.89902e-11
5.72101e-11
4.19397e-12
3.47432e-11
5.4261e-11
1.74219e-12
4.08678e-13
5.91864e-14
-7.25425e-15
-1.19187e-14
7.92576e-13
1.31894e-12
3.9727e-13
-6.01384e-12
6.20529e-11
4.82427e-11
-7.89414e-13
-3.87013e-13
4.10481e-13
-5.05956e-12
1.20899e-11
1.93136e-11
-8.45582e-10
8.14035e-11
9.33096e-10
5.67718e-09
1.85289e-09
1.52203e-10
2.56843e-12
-2.47774e-13
-2.01501e-14
-8.7363e-16
-2.5643e-17
3.19384e-17
4.56834e-16
-3.07374e-15
6.39474e-15
-3.75334e-15
-8.19777e-17
1.14801e-14
-2.01705e-13
8.50743e-13
1.9796e-14
7.41051e-14
7.05754e-14
1.75136e-14
1.71401e-15
1.30816e-16
-3.2238e-17
-1.71956e-16
-5.14777e-17
-3.48258e-15
1.24795e-15
-3.9273e-14
5.04882e-13
6.51041e-13
2.79535e-14
-3.05337e-15
-9.62012e-16
1.73423e-14
-1.00037e-13
2.42803e-13
2.25733e-12
-4.13686e-13
5.66213e-12
6.18901e-11
1.89443e-11
6.17512e-13
-6.77382e-14
-6.79894e-15
-1.99777e-16
8.202e-18
-6.89744e-18
-8.54685e-18
8.21085e-18
-1.40243e-17
-6.84802e-17
6.24585e-17
7.61396e-17
-5.44378e-17
-6.55844e-16
4.72211e-15
9.91771e-17
4.14394e-16
8.6116e-16
2.05291e-16
2.1977e-17
-5.81348e-18
-3.36694e-18
-5.24854e-18
-1.76428e-18
-4.2355e-17
3.52593e-17
-3.4622e-16
3.89095e-15
7.29887e-15
4.53293e-16
-4.52744e-17
3.17993e-19
-2.26572e-17
2.02381e-16
-8.81931e-16
-1.32945e-15
-7.66597e-16
3.80313e-14
4.31491e-13
4.73111e-14
-1.06074e-14
-1.41669e-15
-1.98989e-17
-3.26345e-17
-1.36095e-17
2.62303e-17
-1.19925e-17
-4.08509e-18
1.79171e-17
-3.10004e-17
-5.27761e-17
2.66537e-17
2.74224e-17
1.34182e-17
3.34098e-17
9.13392e-19
-1.29362e-17
1.31574e-18
-1.56829e-17
-1.08614e-17
7.46537e-19
8.96635e-18
1.23468e-17
-1.12591e-17
2.58999e-17
-1.22694e-16
7.34312e-17
1.76715e-16
-8.06317e-18
-2.63271e-17
-4.3886e-17
1.79099e-17
4.53421e-17
-7.81644e-18
-2.3777e-18
-2.77764e-19
-9.37822e-18
1.85546e-16
2.46185e-16
-5.81294e-16
-1.29244e-16
2.80164e-17
3.32615e-17
-4.38621e-17
-2.54845e-17
3.29835e-17
3.52883e-18
-1.6e-18
-5.86431e-18
1.69311e-17
-1.57767e-17
-5.64459e-18
3.08561e-17
-1.88299e-17
-1.49775e-17
-1.04211e-17
2.11336e-17
2.046e-17
-2.12301e-17
-1.8041e-17
1.74051e-17
-4.20101e-18
2.37023e-19
7.60527e-18
8.89462e-18
1.20954e-17
4.03058e-17
-1.77056e-17
-4.84542e-17
-6.56078e-18
2.05343e-17
1.10773e-17
-3.09268e-18
-1.01552e-17
-6.54907e-18
-6.92747e-18
-1.35471e-17
-3.46456e-18
1.72605e-17
7.58537e-18
-1.03575e-17
1.74526e-17
3.371e-19
-1.41277e-17
8.99025e-19
4.82674e-18
3.05533e-17
1.4568e-17
-3.0619e-17
-2.36976e-17
4.45137e-18
-2.55431e-17
1.45279e-18
2.72869e-17
-2.01071e-17
-4.22976e-17
2.80266e-17
2.08475e-17
-4.06046e-19
-3.99608e-18
-2.24423e-18
-9.88771e-19
-1.10114e-18
-1.38636e-18
3.10289e-17
8.90311e-20
-2.05677e-17
-1.29056e-17
-6.76902e-18
3.90682e-18
-2.86873e-18
3.25996e-18
6.05303e-18
5.79728e-18
1.70388e-19
-2.44774e-17
-4.08413e-18
2.0041e-17
4.04556e-18
-2.76163e-17
3.52263e-18
2.44837e-17
-6.25477e-18
-3.75933e-17
2.71601e-17
3.757e-17
-7.86997e-17
-6.76765e-17
1.5245e-16
5.44083e-17
-9.66885e-17
-9.16352e-19
-1.11873e-17
2.38478e-17
-1.84205e-17
6.58016e-18
2.27884e-17
-4.35885e-19
3.03864e-19
-3.81745e-19
-6.79425e-18
5.06353e-18
1.33177e-17
3.70744e-18
-9.13904e-18
1.46347e-17
-4.32003e-17
-2.51184e-17
4.76251e-17
1.06725e-17
-1.90661e-17
7.86238e-18
3.07391e-18
-2.72516e-17
7.31594e-18
1.60665e-17
-1.40905e-17
1.11114e-17
2.34867e-17
-2.39707e-17
-1.08721e-17
4.74447e-19
-6.62413e-18
-1.85137e-17
2.13925e-18
2.44915e-17
-1.37502e-17
5.62977e-17
8.51391e-17
-6.29835e-17
-8.01713e-17
3.02543e-17
1.11762e-18
-2.75168e-17
-3.00048e-18
-7.43361e-18
2.50294e-18
7.74666e-18
8.69775e-18
-1.75795e-17
6.3248e-18
1.44414e-17
-6.57753e-18
1.915e-17
-1.12864e-17
-1.60789e-17
-3.01862e-18
5.52699e-18
9.30162e-18
1.09136e-17
-2.90916e-18
-1.5925e-17
-4.70127e-18
5.53623e-19
1.10137e-17
-1.0881e-17
-1.911e-18
4.76557e-18
-4.29232e-18
1.42249e-17
1.90971e-17
3.0028e-17
-3.00828e-17
-9.20431e-18
1.47375e-17
-2.25495e-17
-1.41071e-17
-3.33665e-17
-1.00736e-17
2.07626e-17
1.01548e-17
-4.37218e-18
1.96303e-17
9.39362e-18
-1.92073e-17
5.08735e-18
2.16622e-17
-2.92585e-17
-2.1902e-17
1.93566e-17
-6.93486e-18
1.11551e-17
1.55211e-17
-1.1185e-17
6.57657e-18
-2.6917e-18
-1.44575e-17
-1.41563e-18
1.0818e-17
2.34986e-17
1.52366e-17
-1.69463e-17
-2.48773e-17
-4.84086e-19
-1.56327e-18
-5.77754e-18
-3.204e-19
2.69886e-17
1.07739e-17
-3.7401e-17
-1.83579e-17
5.27538e-17
2.24487e-17
-4.88364e-17
-8.69583e-18
6.02317e-18
-1.87545e-17
-2.34475e-18
1.47739e-17
4.49897e-19
3.29374e-18
1.08796e-17
-7.95884e-18
-6.86818e-18
3.31915e-18
2.63693e-17
-5.0583e-20
-4.46589e-18
6.17073e-18
1.20947e-18
2.92818e-18
4.67228e-18
2.63755e-17
-1.1199e-17
-5.94351e-17
2.89853e-17
4.39174e-19
-1.80251e-17
2.58458e-17
-2.2192e-18
-2.30995e-18
-1.08984e-17
-5.52041e-19
7.26849e-19
8.06914e-18
5.20846e-18
-5.16077e-18
6.59472e-18
-6.52883e-18
-6.35028e-18
1.44232e-18
-1.62554e-18
6.4461e-19
1.76249e-18
-7.0287e-19
7.88192e-18
-2.45922e-17
-4.50101e-18
1.8237e-17
-2.13729e-18
-1.55243e-17
-1.08926e-17
1.03191e-17
-1.58881e-17
8.288e-18
-3.99592e-17
3.34895e-17
3.39522e-17
-4.86192e-17
2.32518e-17
-7.97686e-18
-3.25991e-18
8.74144e-17
2.12312e-18
-2.78953e-17
-4.11375e-17
-1.07512e-17
2.27513e-17
1.31468e-18
-5.81552e-18
-4.76289e-18
1.38226e-17
6.81663e-18
-6.05638e-18
1.69449e-17
-1.07061e-17
-1.4218e-17
2.14649e-17
9.22922e-19
-9.64282e-18
3.81091e-19
-9.80564e-19
-6.85241e-19
1.03803e-18
-5.54669e-18
1.72601e-17
5.42041e-18
-2.49467e-17
-6.87776e-19
2.78771e-17
-2.32722e-17
-3.00295e-17
4.25858e-17
1.355e-17
-5.36744e-17
5.79628e-05
5.33642e-05
-6.88458e-05
-0.000155577
-0.000127484
-3.51515e-05
4.24499e-05
4.49035e-05
-4.23388e-05
-0.000161613
-0.000268264
-0.000338888
-0.00036523
-0.00034453
-0.000270087
-0.00017891
-0.000136948
-5.18248e-05
0.000349471
0.0010038
0.00101267
0.000200998
-0.000257433
-3.8241e-05
0.000215197
0.000254123
7.68326e-05
-0.000284647
-0.000611328
-0.000645695
-0.000218631
0.000626741
0.00143127
0.0016481
0.0010748
-3.47772e-05
-0.000552945
-0.000414653
-0.000231675
-6.85408e-05
8.54717e-05
-5.39303e-05
-0.000619661
-0.000951084
-0.000861881
-0.000439019
5.40719e-05
0.000273354
2.66593e-05
-0.000600448
-0.00139416
-0.00209006
-0.00254276
-0.00270326
-0.00257601
-0.00247325
-0.00286054
-0.00324598
-0.00119051
0.0052636
0.0110208
0.00745358
-0.000450435
-0.00246922
-0.000214859
0.00208766
0.00262034
0.000538877
-0.00269365
-0.00449554
-0.00324405
0.00143454
0.0076644
0.0116738
0.0113456
0.00578932
-0.000859605
-0.002705
-0.00181851
-0.000610166
-3.53315e-05
0.000138244
9.41734e-05
0.00012734
9.75927e-05
8.55143e-05
0.00013018
0.000169783
0.000276665
0.000347706
0.000154622
-0.000324154
-0.000886457
-0.00139865
-0.00190744
-0.00264185
-0.00393445
-0.00575043
-0.0067766
-0.00394927
0.00309122
0.00570707
0.000767863
-0.00250774
-0.00142373
0.000929693
0.00247315
0.00210948
0.00026396
-0.00180871
-0.00313362
-0.00251079
0.000468639
0.00384284
0.00543914
0.00440901
0.00132366
-0.000795436
-0.00122384
-0.000722546
-7.70992e-05
8.23965e-05
0.000172184
0.000289921
0.000312989
0.000255446
0.000191132
0.000158082
0.000201501
0.000296436
0.000336707
0.000282874
0.000144178
-9.73363e-05
-0.000450236
-0.000863843
-0.00134252
-0.00205327
-0.00298811
-0.00291164
-0.000339308
0.00155858
-4.67683e-05
-0.00111181
-0.000546705
0.000272236
0.000970356
0.00101216
0.000426763
-0.000291171
-0.00103868
-0.00145447
-0.000907349
0.000230793
0.000965555
0.00072956
-1.53825e-05
-0.000197758
-0.000200795
-0.000277173
-8.82343e-05
-7.54136e-06
3.18621e-05
7.95307e-05
8.73127e-05
5.37606e-05
2.37921e-05
1.14523e-05
1.60581e-05
4.18565e-05
7.50995e-05
0.000118397
0.000146403
7.62851e-05
-9.16036e-05
-0.000212068
-0.000191287
-0.000151805
-0.000362071
-0.000633985
0.000199716
0.000740971
-0.000394175
-0.000515151
3.77866e-05
1.67766e-05
0.000102187
0.000178592
9.07598e-05
4.9319e-05
-6.81641e-05
-0.000289077
-0.000235643
8.70092e-05
0.000249496
1.84049e-05
-0.000230005
1.21936e-05
0.000203244
-1.86342e-05
-6.89019e-05
-2.94494e-05
3.06119e-05
4.91167e-05
3.84213e-05
7.97992e-06
-7.29228e-06
-1.0194e-05
-1.8202e-05
-1.47653e-05
1.35214e-05
6.65454e-05
0.000107211
4.94183e-05
-9.02198e-05
-0.000153849
-7.55805e-05
1.53622e-05
5.52464e-05
-0.00018624
-1.17509e-05
0.000434906
-0.000376381
-0.000369268
0.0002864
9.67854e-05
-6.00647e-05
5.23008e-06
3.78819e-05
7.39623e-05
5.96049e-05
-4.97894e-05
-0.000104323
-6.59445e-06
6.62615e-05
-9.23544e-05
-0.000268843
-3.65301e-05
0.000265387
0.0001167
-4.504e-05
-3.66653e-05
3.39415e-05
3.72679e-05
1.23338e-05
-1.22205e-05
-1.81534e-05
-1.24894e-05
-1.70721e-05
-2.32765e-05
-3.0664e-06
3.67357e-05
5.15313e-05
-7.79773e-06
-8.81244e-05
-8.07943e-05
-1.27934e-05
1.4004e-05
3.77201e-05
2.08205e-05
-3.05415e-05
0.000231546
-0.000164628
-0.000287894
0.00016658
0.000100051
-3.45012e-05
-2.04803e-06
2.19567e-05
2.624e-05
2.09663e-05
-2.64077e-06
-2.66285e-05
-1.26806e-05
3.56646e-05
2.27802e-06
-0.000148933
-9.85287e-05
0.000149313
0.000138566
-3.85464e-05
-3.66568e-05
2.53549e-05
2.42706e-05
-8.95581e-07
-1.6042e-05
-2.04373e-05
-1.94929e-05
-1.63924e-05
-1.27052e-05
-1.05306e-06
2.27582e-05
2.39935e-05
-2.65068e-05
-6.08497e-05
-3.22349e-05
4.85211e-06
1.15059e-05
6.43223e-06
1.99785e-05
2.72244e-05
0.000130359
-2.87939e-05
-0.000156323
4.79585e-05
4.41761e-05
-1.07992e-05
1.60689e-06
9.20311e-06
4.62051e-06
2.10826e-06
2.24922e-06
4.75768e-07
-2.00446e-07
2.88449e-06
1.90076e-05
-3.01462e-05
-5.16193e-05
6.10899e-05
8.65102e-05
-3.5986e-05
-3.22426e-05
1.79321e-05
1.61893e-05
-3.32106e-06
-1.26784e-05
-1.49278e-05
-1.50704e-05
-1.30109e-05
-5.4273e-06
4.80555e-06
1.0042e-05
6.0524e-06
-1.17784e-05
-2.10637e-05
-9.23766e-06
2.91874e-06
3.89832e-06
1.29915e-06
1.2418e-06
1.48941e-05
6.28822e-05
-1.09502e-06
-6.85411e-05
1.19421e-05
1.74972e-05
-9.06099e-07
3.57123e-07
1.74655e-06
1.66847e-07
-4.45297e-07
1.30038e-07
-5.02254e-07
7.76977e-07
-9.18443e-07
2.05947e-06
-2.23738e-06
-1.06659e-05
2.94714e-05
4.04007e-05
-2.65429e-05
-2.10988e-05
1.23258e-05
1.13254e-05
-5.41794e-07
-5.23966e-06
-6.37518e-06