/*--------------------------------*- C++ -*----------------------------------*\
| =========                 |                                                 |
| \\      /  F ield         | OpenFOAM: The Open Source CFD Toolbox           |
|  \\    /   O peration     | Version:  5.0                                   |
|   \\  /    A nd           | Web:      www.OpenFOAM.org                      |
|    \\/     M anipulation  |                                                 |
\*---------------------------------------------------------------------------*/
FoamFile
{
    version     2.0;
    format      ascii;
    class       volScalarField;
    location    "50.4676134421789371";
    object      Cuu;
}
// * * * * * * * * * * * * * * * * * * * * * * * * * * * * * * * * * * * * * //

dimensions      [0 2 -3 0 0 0 0];

internalField   nonuniform List<scalar> 
60000
(
-8.61929e-10
3.63029e-09
2.2381e-09
-2.29443e-09
-2.53058e-09
-8.09937e-10
8.66886e-10
3.88529e-09
4.52909e-09
-3.51953e-10
-4.64948e-09
-1.496e-09
5.02331e-09
8.17244e-09
7.21743e-09
3.01604e-09
-2.02614e-09
-3.44653e-09
6.05382e-09
3.08816e-08
5.20999e-08
4.03314e-08
2.30347e-08
3.726e-08
4.34567e-08
-2.5723e-08
-1.48998e-07
-1.91836e-07
-1.04932e-07
-1.74784e-08
1.63469e-08
1.59073e-08
-8.83343e-09
-2.6327e-08
-1.11561e-08
-6.18008e-09
6.1033e-10
9.32018e-09
1.38905e-09
-4.19534e-09
-9.46071e-08
-1.34227e-08
2.15748e-08
-3.32108e-09
-1.82472e-08
-1.22546e-08
-1.97176e-09
4.04764e-08
7.67297e-08
1.73001e-08
-1.15665e-07
-1.43517e-07
-2.67455e-08
6.69004e-08
9.23056e-08
6.36644e-08
-8.3966e-09
-6.9485e-08
-6.1458e-08
9.45127e-08
3.49476e-07
4.63883e-07
5.03259e-07
6.9487e-07
8.34172e-07
3.67022e-07
-8.99181e-07
-2.06844e-06
-1.84899e-06
-6.92702e-07
7.13454e-08
3.00377e-07
1.24291e-07
-3.03431e-07
-4.1477e-07
-1.31779e-07
-5.79712e-08
9.02343e-08
7.5566e-08
-7.1032e-08
-1.81859e-07
-1.50653e-07
-3.67121e-08
1.2553e-08
1.28067e-08
-9.32503e-09
-1.54281e-08
3.6023e-08
1.33845e-07
1.1934e-07
-9.57216e-08
-2.62873e-07
-1.45599e-07
5.12161e-08
1.51242e-07
1.60987e-07
4.52724e-08
-8.41683e-08
-7.93962e-08
8.42568e-08
3.84703e-07
5.40947e-07
5.34403e-07
5.9348e-07
8.63966e-07
9.40355e-07
2.94026e-07
-8.66848e-07
-1.3494e-06
-7.5203e-07
-6.62538e-08
2.68033e-07
3.58662e-07
7.4142e-08
-3.41568e-07
-2.67707e-07
-9.78517e-08
2.25587e-08
2.28117e-07
5.51846e-08
-5.33067e-08
-1.05458e-07
-2.02238e-08
1.93235e-08
3.65265e-08
-3.75158e-10
-4.84881e-08
-3.38091e-08
6.41435e-08
1.38715e-07
-2.31278e-09
-1.93005e-07
-8.80625e-08
5.09837e-08
6.99613e-08
1.28575e-07
5.13169e-08
-6.78039e-08
-8.26164e-09
5.17331e-08
1.88899e-07
2.86207e-07
3.53332e-07
2.256e-07
2.79336e-07
4.68558e-07
3.89114e-07
-3.21001e-08
-2.37894e-07
-3.76813e-10
5.61834e-08
-1.12376e-07
-6.44492e-08
5.93756e-08
1.7395e-08
6.1214e-08
-2.3533e-08
-3.31542e-07
-5.21385e-08
1.55038e-07
4.33641e-08
-7.0029e-08
1.18146e-08
4.31389e-08
7.24152e-08
5.17591e-08
-6.17268e-08
-1.3013e-07
-8.92106e-08
6.47889e-08
9.73649e-08
-1.22698e-07
-7.06404e-08
7.76149e-08
-2.58219e-08
5.97118e-08
3.33455e-08
-7.49011e-08
2.50583e-07
6.80945e-08
-2.37594e-07
-5.23282e-08
4.25581e-07
2.86103e-07
-7.60807e-08
-2.74964e-08
8.45801e-09
-1.59771e-07
-2.34013e-07
1.60943e-07
3.67243e-07
-4.54306e-08
-3.70788e-07
-3.21986e-07
-1.21248e-07
1.60032e-07
1.39571e-07
-5.15264e-07
-6.11402e-07
-4.60097e-08
5.77378e-08
-3.11127e-08
-4.71148e-08
4.51482e-08
1.12529e-07
1.56496e-07
6.99941e-08
-7.79311e-08
-1.95906e-07
-1.71266e-07
4.06991e-08
3.64218e-08
-9.24565e-08
4.00396e-08
1.05579e-07
2.70695e-07
8.46752e-08
-3.14101e-07
5.61767e-07
7.74502e-07
-6.20483e-07
-6.16639e-07
4.21045e-07
3.08901e-07
-4.35566e-07
-2.20418e-07
1.87211e-08
1.42082e-08
-1.58605e-07
-2.42784e-07
6.86236e-08
3.31532e-07
2.36212e-07
-3.32e-08
-2.87996e-07
-2.21644e-07
2.17973e-08
-2.61928e-07
-6.78897e-07
-3.62196e-07
-1.41441e-07
4.40872e-08
-3.71181e-08
-2.52846e-08
4.26581e-08
1.49498e-07
2.0978e-07
2.012e-07
6.56126e-08
-2.67025e-07
-3.94638e-07
-9.69024e-08
2.7587e-08
7.4449e-08
3.77271e-07
6.9278e-07
1.04827e-07
-7.23621e-07
4.51206e-07
2.20465e-06
-2.47186e-07
-1.70864e-06
-2.99315e-07
1.15535e-07
-4.53658e-07
-1.36803e-07
2.28168e-08
4.04331e-08
6.71683e-08
-1.47522e-08
-2.42761e-07
-2.18932e-07
2.66839e-07
7.13094e-07
3.70721e-07
-3.73512e-07
-4.86757e-07
-2.75218e-07
-4.0845e-07
-4.96556e-07
-3.5418e-07
-9.84271e-08
-1.24439e-09
2.80913e-09
3.69346e-09
5.57325e-09
7.62359e-08
2.832e-07
6.15442e-07
4.52521e-07
-4.95818e-07
-7.92492e-07
-2.25845e-07
2.41492e-07
8.77765e-07
9.07209e-07
-2.54563e-07
-1.05401e-06
-1.17891e-07
3.03136e-06
1.56896e-06
-2.36645e-06
-1.62908e-06
-7.90615e-08
-9.74109e-08
-6.94068e-09
1.07246e-08
-2.93702e-08
3.66635e-08
2.22184e-07
2.37882e-07
-2.14568e-07
-5.66708e-07
1.5518e-07
1.035e-06
4.43174e-07
-5.81018e-07
-6.2924e-07
-3.2713e-07
-3.48223e-07
-2.95734e-07
-2.66662e-07
-1.10592e-07
-5.64345e-08
4.08122e-08
8.51957e-08
-3.05057e-08
-8.62114e-08
4.39177e-07
1.50261e-06
8.43794e-07
-1.20544e-06
-1.08392e-06
3.23371e-07
1.29359e-06
6.05387e-07
-7.9602e-07
-1.06402e-06
-4.52649e-07
2.11729e-06
3.35191e-06
-1.13354e-06
-2.39627e-06
-5.83058e-07
2.72605e-08
1.36696e-07
8.1002e-08
-4.34397e-08
2.80995e-09
2.32711e-07
4.46995e-07
2.77088e-07
-4.59246e-07
-8.08453e-07
1.79369e-07
9.58058e-07
2.23304e-07
-5.79835e-07
-5.07812e-07
-2.45034e-07
-9.46185e-08
-2.80516e-07
-2.75947e-07
-2.01281e-07
-2.49249e-08
1.14631e-07
1.04171e-07
-4.92221e-08
-1.37634e-07
1.07414e-06
2.54953e-06
-2.5516e-08
-1.99399e-06
-1.16593e-07
1.24021e-06
1.17149e-07
-9.84588e-07
-8.47373e-07
-3.46296e-07
6.26944e-07
2.90232e-06
1.07041e-06
-1.62091e-06
-1.34923e-06
-3.63434e-07
2.12097e-07
1.94136e-07
-7.57228e-09
2.92939e-08
2.74975e-07
4.87156e-07
3.54465e-07
-2.2303e-07
-7.97104e-07
-5.64342e-07
3.30516e-07
6.12737e-07
2.66258e-08
-4.28172e-07
-2.88884e-07
5.63602e-08
-2.34381e-07
-4.35535e-07
-2.32039e-07
-4.44495e-08
3.50428e-08
7.2737e-08
1.0925e-07
-2.50207e-08
1.55202e-07
2.1844e-06
1.8526e-06
-1.66858e-06
-1.19285e-06
7.6933e-07
2.49761e-07
-6.89957e-07
-7.42755e-07
-2.90089e-07
2.92895e-08
1.14293e-06
1.82249e-06
-6.42059e-08
-1.61906e-06
-1.01138e-06
7.86102e-08
2.54582e-07
6.71728e-08
9.32767e-08
3.56376e-07
6.15268e-07
4.09547e-07
-3.20073e-07
-8.59142e-07
-6.37133e-07
1.45586e-08
3.40467e-07
1.39681e-07
-1.85934e-07
-1.92167e-07
4.47985e-08
-1.58323e-07
-3.42579e-07
-1.12561e-07
-1.79961e-08
2.38174e-08
1.46158e-09
2.29374e-08
7.63443e-08
-2.25448e-08
8.77006e-07
2.17292e-06
-2.64719e-07
-1.65135e-06
6.61816e-10
5.41037e-07
-3.38235e-07
-6.57088e-07
-3.17237e-07
-3.48402e-08
2.13253e-07
1.0478e-06
4.41831e-07
-1.12467e-06
-1.00577e-06
-1.07241e-07
1.60248e-07
1.16305e-07
1.42432e-07
3.74869e-07
7.36617e-07
6.80659e-07
-2.34539e-07
-1.08161e-06
-7.99019e-07
-2.63062e-08
2.07788e-07
-2.25011e-09
-1.58406e-07
-1.1524e-07
-3.54558e-08
-6.93796e-08
-1.09556e-07
2.34934e-08
8.96864e-08
1.2374e-07
-4.42796e-08
-1.58264e-07
-2.14486e-08
6.81292e-09
2.4606e-07
1.47898e-06
7.04088e-07
-1.22215e-06
-6.62375e-07
3.51282e-07
-1.47218e-09
-3.77499e-07
-3.22739e-07
-1.10097e-07
4.0913e-08
2.63254e-07
8.04323e-08
-3.92142e-07
-3.35165e-07
-1.59993e-07
-1.1285e-08
8.91119e-08
1.32147e-07
2.63599e-07
6.33119e-07
9.68986e-07
3.33241e-07
-1.00956e-06
-1.16143e-06
-2.54298e-07
1.7291e-07
2.32638e-08
-1.36404e-07
-1.22955e-07
-5.71822e-08
-1.41206e-09
-1.19924e-08
6.53365e-08
2.28609e-07
2.37731e-07
-5.78996e-08
-2.83575e-07
-1.16463e-07
3.22076e-08
2.04868e-08
9.24566e-07
1.22223e-06
-5.77938e-07
-1.08792e-06
-8.1729e-08
2.78471e-07
-1.58061e-08
-3.07814e-07
-2.88858e-07
-1.51599e-08
4.449e-08
-2.55226e-08
1.2087e-07
1.55932e-07
-1.82667e-07
-2.31981e-07
1.00206e-08
7.69027e-08
7.73808e-08
3.10749e-07
8.74797e-07
1.05584e-06
-2.28901e-07
-1.36544e-06
-7.3189e-07
2.59678e-08
6.81321e-08
-4.77224e-08
-1.0373e-07
-4.17311e-08
-1.54178e-08
1.9781e-08
1.09121e-07
1.79074e-07
1.16544e-07
-4.74925e-08
-1.82728e-07
-1.13197e-07
1.1534e-08
8.53898e-09
5.97823e-07
1.36343e-06
4.38147e-08
-1.20771e-06
-4.41562e-07
4.50821e-07
1.76974e-07
-3.4675e-07
-4.2439e-07
-4.3493e-08
3.34191e-07
3.131e-07
1.26367e-07
-2.55962e-07
-3.98538e-07
-1.3902e-07
2.71086e-08
-1.80975e-08
-3.81018e-08
9.00443e-08
5.29727e-07
1.22994e-06
8.22687e-07
-9.3957e-07
-1.25774e-06
-2.64606e-07
4.36187e-08
-4.92228e-08
-5.57141e-08
1.544e-09
3.04157e-08
1.07161e-07
1.48002e-07
2.20776e-08
-1.1972e-07
-1.104e-07
-5.01446e-08
-2.04239e-08
-1.12776e-09
9.84485e-08
5.27718e-07
1.03243e-06
5.10141e-08
-1.09709e-06
-3.40255e-07
4.78705e-07
1.74162e-08
-3.78784e-07
-2.52873e-07
-1.14073e-07
1.40488e-07
2.8896e-07
1.29268e-08
-2.32205e-07
-1.85434e-07
-7.33595e-08
-2.36113e-08
-1.46466e-08
-2.54937e-08
-6.60656e-09
2.57098e-07
9.49337e-07
1.35109e-06
8.17191e-08
-1.35102e-06
-8.78975e-07
-9.04325e-08
1.17345e-09
-1.90333e-08
4.87139e-08
1.16591e-07
2.54357e-07
2.615e-07
-5.36737e-08
-3.30233e-07
-2.32623e-07
-4.85624e-08
-5.0938e-10
5.36657e-08
2.83023e-07
6.05774e-07
5.47479e-07
-3.62212e-07
-8.40641e-07
1.51026e-09
4.08423e-07
-1.13722e-07
-3.76424e-07
-1.70332e-07
-7.00744e-09
1.18589e-08
-3.61398e-10
4.90004e-08
2.82295e-09
-5.32312e-08
3.59511e-07
5.80396e-07
3.77619e-08
-4.82705e-07
-4.53633e-07
-1.0817e-07
4.26521e-07
1.10243e-06
9.82648e-07
-3.88436e-07
-1.1281e-06
-6.0632e-07
-1.07347e-07
1.7481e-08
5.98487e-08
1.93845e-07
4.54295e-07
5.20933e-07
-1.42932e-07
-6.89585e-07
-3.55772e-07
1.78989e-08
-3.48338e-08
2.3064e-08
4.61478e-07
7.53942e-07
1.88929e-07
-6.91362e-07
-5.81573e-07
2.48118e-07
3.80495e-07
-1.78166e-07
-4.29341e-07
-1.93914e-07
1.48628e-08
2.25419e-07
4.70938e-07
2.07944e-07
-5.36896e-07
-1.54655e-07
1.15036e-06
6.83368e-07
-7.87405e-07
-8.66309e-07
-2.39638e-07
-1.04606e-08
-9.85817e-08
1.56644e-07
8.98528e-07
9.02625e-07
-1.51151e-07
-8.52954e-07
-6.50904e-07
-1.91427e-07
-5.526e-08
5.61658e-07
7.62875e-07
-5.46944e-08
-9.00248e-07
-5.50948e-07
1.09761e-07
1.02658e-07
-1.97729e-07
-6.15339e-08
5.5064e-07
7.25012e-07
-7.79061e-08
-7.70715e-07
-3.62601e-07
3.2807e-07
3.07192e-07
-1.91966e-07
-4.17629e-07
-1.97739e-07
-1.14152e-08
7.72172e-08
6.48524e-08
-1.04312e-07
2.88344e-07
6.67219e-07
-1.4651e-07
-6.34325e-07
4.71175e-08
1.581e-07
-2.93763e-07
1.78027e-07
4.91621e-07
-3.50395e-07
-4.82598e-07
4.36085e-07
7.06434e-07
3.07132e-08
-5.64173e-07
-5.30837e-07
-2.77922e-07
1.52801e-07
3.42645e-07
-2.53013e-07
-5.21881e-07
-1.95191e-07
8.57335e-10
4.67327e-09
-1.76892e-08
9.23685e-08
4.412e-07
4.63736e-07
-2.09201e-07
-6.01116e-07
-1.80122e-07
2.58226e-07
1.84294e-07
-1.39917e-07
-2.90524e-07
-1.60038e-07
-2.98651e-09
2.74102e-08
4.5555e-08
1.34132e-07
9.60177e-08
-1.52835e-07
-9.86566e-08
2.98892e-07
3.94085e-07
8.6357e-08
-3.58954e-07
-3.61222e-07
5.0618e-07
4.75248e-07
-5.64886e-07
-5.56635e-07
1.58851e-07
3.18439e-07
4.11068e-08
-2.44205e-07
-1.63646e-08
-2.64026e-09
-1.58989e-08
-4.16656e-08
-1.69921e-08
1.38725e-08
6.08444e-08
7.05935e-08
3.87367e-09
-1.53544e-08
2.48451e-08
-1.78786e-08
-1.21475e-07
-1.18451e-07
-1.0794e-08
8.41423e-08
1.20151e-07
8.93682e-08
-3.12323e-08
-1.64084e-07
-1.43322e-07
1.41001e-08
1.274e-07
9.044e-08
-5.08839e-08
-1.34935e-07
-7.41863e-08
4.04332e-08
1.38189e-07
2.122e-07
1.52169e-07
-1.47044e-07
-2.33579e-07
1.05146e-07
5.31061e-08
-2.03785e-07
-1.17662e-07
1.06255e-08
-8.36408e-09
-2.76398e-08
9.74308e-08
-3.04496e-08
-1.09192e-07
-2.68145e-08
1.96959e-08
-1.08478e-08
3.52896e-08
1.20978e-07
3.77845e-08
-1.11036e-07
-8.64505e-08
1.23654e-08
-8.98952e-09
-9.30404e-09
9.6118e-08
4.69143e-08
-9.87609e-08
-6.4718e-08
1.39785e-08
-2.16516e-08
-1.7049e-09
1.33472e-07
1.5138e-07
-2.03443e-08
-1.58591e-07
-1.17706e-07
4.10863e-08
1.89499e-07
2.16957e-07
1.09774e-07
-6.33405e-08
-2.12825e-07
-2.1303e-07
-4.77206e-08
4.31882e-08
-1.67115e-08
-5.046e-08
-2.5497e-08
7.68897e-09
7.31629e-08
4.61182e-08
8.46635e-08
6.32237e-09
-6.11968e-08
-3.14109e-08
5.24419e-08
1.56017e-07
1.49925e-07
-8.17268e-08
-2.58302e-07
-9.20576e-08
6.64737e-08
-4.07486e-08
2.12795e-08
3.22121e-07
2.65258e-07
-1.28963e-07
-2.89666e-07
-1.70297e-07
-4.53471e-08
4.62269e-10
-5.54363e-09
-1.21753e-08
4.02762e-08
1.17618e-07
1.2908e-07
4.54436e-08
-6.10884e-08
-1.04867e-07
-8.19398e-08
-4.1688e-08
-2.74302e-08
-2.84627e-08
-1.55707e-08
9.64928e-10
9.26209e-09
1.96896e-08
1.90661e-08
-1.17596e-08
-2.15181e-08
-5.65328e-08
-1.60978e-08
-3.54102e-09
1.37876e-08
1.26304e-07
3.97749e-07
6.32438e-07
5.24142e-07
3.2176e-08
-5.29998e-07
-6.69635e-07
-3.61641e-07
-7.65416e-08
9.15815e-09
3.89736e-08
4.18718e-08
-2.48725e-08
-8.32034e-08
-4.61162e-08
3.91048e-08
8.41443e-08
7.23362e-08
2.99724e-08
-1.55438e-08
-3.61474e-08
-2.40829e-08
-3.88883e-09
-7.02257e-09
-3.11091e-08
-3.94518e-08
-1.69754e-08
1.34249e-08
6.81431e-09
-1.30907e-08
4.52201e-08
1.33805e-07
1.1397e-07
-1.16213e-08
-1.12863e-07
-1.12064e-07
-5.37553e-08
-6.22416e-08
-1.36997e-07
-8.97639e-08
2.92858e-07
7.23885e-07
5.86345e-07
-8.04783e-08
-5.06106e-07
-4.15256e-07
-1.81308e-07
-3.86745e-08
1.0839e-09
-2.65028e-08
-5.74845e-08
-4.7601e-08
-2.1945e-08
-4.71783e-09
2.47414e-08
7.58616e-08
1.23435e-07
1.25743e-07
4.69424e-08
-6.96212e-08
-1.18074e-07
-8.92272e-08
-5.2969e-08
-3.15652e-08
5.28905e-09
6.61913e-08
8.49018e-08
5.87574e-09
-9.3277e-08
-6.49812e-08
8.80614e-08
2.00478e-07
1.61935e-07
2.74899e-08
-7.62689e-08
-8.86358e-08
2.96268e-11
-3.52673e-10
-3.2889e-10
1.83133e-09
3.82571e-09
1.33487e-09
-2.03377e-09
-1.54269e-09
1.48456e-09
3.90801e-09
7.28418e-09
1.45658e-08
2.38788e-08
2.93842e-08
2.68685e-08
1.64944e-08
1.28047e-09
-1.61103e-08
-3.23913e-08
-2.94866e-08
1.28796e-08
5.46718e-08
3.98922e-08
-1.97503e-09
-2.71958e-08
-5.70427e-08
-7.8658e-08
-4.80202e-08
1.50193e-08
6.78229e-08
7.47988e-08
1.29698e-08
-7.94946e-08
-1.12061e-07
-2.6992e-08
1.14378e-08
-2.97894e-08
-1.46495e-08
-6.44661e-10
1.5092e-10
-5.25628e-10
1.60926e-10
8.09194e-09
4.02936e-08
7.18894e-08
3.84867e-08
-3.7583e-08
-5.94683e-08
-1.60478e-08
3.24874e-08
7.30235e-08
1.38566e-07
2.36219e-07
3.3645e-07
3.87637e-07
3.48091e-07
2.33967e-07
5.74039e-08
-3.15633e-07
-6.85882e-07
-4.22126e-07
2.37779e-07
5.76339e-07
4.94455e-07
1.50175e-07
-4.76223e-07
-1.11074e-06
-1.07347e-06
-3.09335e-07
5.4399e-07
9.4403e-07
5.96642e-07
-3.62532e-07
-1.2721e-06
-1.06641e-06
1.33597e-07
6.89415e-08
-2.594e-07
-8.07852e-08
-2.48781e-09
-4.61936e-09
-6.13297e-09
1.59125e-08
5.35016e-08
9.20865e-08
9.12942e-08
6.19716e-09
-7.94727e-08
-5.4871e-08
2.69908e-08
8.37488e-08
1.39085e-07
2.48046e-07
4.04263e-07
5.1223e-07
4.71345e-07
3.71548e-07
3.17837e-07
7.81919e-08
-4.62349e-07
-5.25024e-07
2.20316e-08
5.782e-07
8.2364e-07
5.16348e-07
-1.52594e-07
-8.5084e-07
-1.00187e-06
-4.34655e-07
3.72199e-07
9.53366e-07
1.00125e-06
3.606e-07
-5.86819e-07
-1.04919e-06
-6.53531e-08
5.63049e-07
-2.22771e-07
-3.38361e-07
-4.84978e-08
-1.18697e-08
-8.26478e-09
3.5213e-09
1.97655e-08
3.06433e-08
3.55941e-08
2.23086e-08
-1.53733e-08
-2.05502e-08
6.7636e-09
3.90611e-08
7.18916e-08
1.44548e-07
2.71683e-07
3.45197e-07
2.08947e-07
6.15767e-08
1.0502e-07
1.36309e-07
1.10355e-07
2.75683e-07
-1.7402e-08
-2.11851e-07
3.42825e-07
3.96861e-07
-1.21354e-07
-4.71164e-07
-4.40331e-07
-1.45586e-07
1.3509e-07
3.73735e-07
5.28767e-07
3.88391e-07
2.37973e-08
-4.30947e-08
8.08004e-07
1.30299e-06
-1.55942e-07
-8.46027e-07
-2.93539e-07
-1.5926e-07
-1.2886e-09
3.2661e-10
1.17053e-08
9.14778e-09
-1.95111e-08
-2.16437e-08
1.08107e-09
1.09316e-08
-4.31518e-09
4.94056e-09
5.45745e-08
1.46741e-07
2.7302e-07
2.90636e-07
-2.84752e-08
-2.9477e-07
-2.11755e-07
-1.03174e-07
2.37338e-07
1.15992e-06
3.54777e-07
-1.10794e-06
-3.39679e-07
4.17208e-07
-1.52592e-07
-4.84471e-07
-3.8368e-07
-1.32892e-07
-9.79145e-09
7.50299e-10
4.295e-08
3.26764e-08
-3.8409e-09
3.2558e-07
1.63102e-06
2.45654e-06
3.25475e-07
-1.58567e-06
-1.0263e-06
-7.24561e-07
-4.96245e-08
1.72858e-08
5.19634e-08
4.35647e-08
-4.96792e-08
-6.8952e-08
5.30118e-09
-1.65335e-09
-2.41967e-08
-1.49661e-08
8.01753e-08
2.46154e-07
4.53414e-07
3.55713e-07
-2.54385e-07
-5.47405e-07
-2.82111e-07
-1.27187e-07
1.8164e-07
1.79685e-06
1.28779e-06
-1.4782e-06
-1.07905e-06
3.76186e-07
-8.90316e-08
-3.47818e-07
-2.69058e-07
-1.93474e-07
-1.00751e-07
-1.58903e-08
-5.60687e-08
-1.74968e-07
-1.26049e-07
1.92937e-07
1.34275e-06
3.02259e-06
1.7703e-06
-1.3434e-06
-2.01985e-06
-1.7302e-06
-4.13948e-07
4.49175e-08
1.37288e-07
1.29057e-07
-7.93214e-08
-1.90538e-07
6.5668e-08
4.7017e-08
-1.34002e-07
-7.22042e-08
1.03634e-07
4.02523e-07
6.85943e-07
3.21202e-07
-5.6314e-07
-6.74975e-07
-1.99759e-07
-2.26383e-08
1.34123e-07
2.072e-06
2.28183e-06
-1.55644e-06
-1.89257e-06
8.42656e-09
-3.87631e-08
-9.00265e-08
3.14569e-08
8.77791e-08
1.13148e-07
8.62761e-08
-1.90083e-07
-6.5945e-07
-5.90094e-07
6.09673e-08
7.95639e-07
2.15107e-06
2.43629e-06
1.94638e-07
-2.04797e-06
-2.15675e-06
-1.36487e-06
-1.59066e-07
2.75873e-07
3.23453e-07
-2.92016e-08
-4.99272e-07
-1.27818e-07
3.93882e-07
-1.77201e-07
-3.04649e-07
1.24416e-07
6.15826e-07
8.56543e-07
5.90178e-08
-8.25076e-07
-5.98988e-07
-1.15059e-07
1.93974e-08
1.18668e-07
2.04859e-06
2.93694e-06
-1.33459e-06
-2.38673e-06
-3.92727e-07
1.64826e-08
3.57284e-08
1.33896e-07
2.69558e-07
4.39509e-07
5.50587e-07
2.28449e-07
-7.92478e-07
-1.45517e-06
-5.47151e-07
5.85473e-07
1.16357e-06
1.68269e-06
1.3665e-06
-4.05326e-07
-6.49715e-07
-2.21875e-06
-1.05741e-06
2.37437e-07
6.94143e-07
3.00185e-07
-6.9968e-07
-9.13299e-07
5.06839e-07
4.38909e-07
-6.64841e-07
-9.06813e-08
8.42772e-07
7.54595e-07
-4.15781e-07
-9.42843e-07
-4.24516e-07
-3.73345e-08
-8.18127e-10
9.66671e-08
1.72945e-06
3.05587e-06
-7.57271e-07
-2.32418e-06
-6.87119e-07
-2.62789e-08
6.41741e-08
1.6249e-07
3.11948e-07
5.4006e-07
7.92917e-07
6.9046e-07
-2.64487e-07
-1.55891e-06
-1.36954e-06
1.464e-07
7.84152e-07
6.99802e-07
1.11284e-06
1.52369e-06
2.19596e-06
-1.60106e-06
-2.49255e-06
-2.63728e-07
1.09615e-06
3.4567e-07
-8.16693e-07
-1.22302e-06
-1.16821e-07
1.2217e-06
-2.48606e-07
-8.31082e-07
6.5671e-07
5.70979e-07
-7.5107e-07
-8.18541e-07
-2.1196e-07
-2.97621e-08
-5.00593e-08
1.1196e-07
1.21709e-06
2.59147e-06
-4.82312e-09
-1.7615e-06
-9.41355e-07
-2.38812e-07
5.35071e-08
1.7452e-07
2.77644e-07
5.17654e-07
8.73415e-07
9.50265e-07
1.24782e-07
-1.25373e-06
-1.59268e-06
-3.94981e-07
5.13686e-07
2.77631e-07
3.65132e-07
2.12967e-06
4.15957e-06
9.80487e-08
-3.59859e-06
-1.04236e-06
1.34491e-06
6.9638e-08
-1.15911e-06
-9.80981e-07
-3.40827e-07
9.5609e-07
8.02059e-07
-9.46316e-07
-3.50698e-07
4.61963e-07
-3.02309e-07
-4.37843e-07
-1.01795e-07
-9.56078e-08
-1.28145e-07
2.09095e-07
8.50253e-07
1.79563e-06
6.31697e-07
-1.08739e-06
-1.32046e-06
-5.33159e-07
7.14119e-08
1.58623e-07
1.80096e-07
3.77764e-07
7.60794e-07
1.09772e-06
5.63359e-07
-9.27613e-07
-1.57424e-06
-6.09553e-07
3.00899e-07
1.01193e-07
-9.97249e-08
1.56147e-06
3.66786e-06
1.13426e-06
-3.47931e-06
-1.57491e-06
1.19923e-06
8.2491e-08
-1.07944e-06
-7.03495e-07
-1.35324e-07
3.8866e-07
9.44912e-07
-1.2402e-07
-8.34395e-07
8.81333e-08
2.85709e-07
-1.50061e-07
-1.67982e-07
-1.89195e-07
-1.80633e-07
3.06188e-07
8.32343e-07
1.22622e-06
6.46933e-07
-1.07171e-06
-1.50905e-06
-4.88418e-07
1.06866e-07
1.12784e-07
9.26693e-08
1.68272e-07
4.40461e-07
9.62273e-07
1.05845e-06
-2.02434e-07
-1.40534e-06
-7.99808e-07
2.20776e-07
9.6002e-08
-2.61699e-07
6.09446e-07
1.47545e-06
6.773e-07
-1.91829e-06
-1.09216e-06
5.57051e-07
1.06075e-07
-4.85001e-07
-2.46346e-07
6.17737e-08
2.71339e-07
6.04381e-07
2.7153e-07
-6.86666e-07
-2.85267e-07
3.72634e-07
1.52514e-08
-2.09692e-07
-1.88143e-07
-1.97287e-07
2.37012e-07
8.89994e-07
8.46795e-07
-6.13071e-08
-1.154e-06
-8.90576e-07
-1.98349e-07
5.84975e-08
1.40481e-07
7.70384e-08
-5.86015e-08
4.66091e-09
4.44329e-07
1.0816e-06
7.49883e-07
-6.91259e-07
-1.00754e-06
-6.26695e-08
2.62328e-07
-1.53859e-07
-1.45955e-08
5.74042e-08
-1.20999e-07
-5.24919e-07
-1.97342e-07
4.48783e-08
4.44161e-08
-5.02481e-09
1.43416e-08
1.26875e-07
3.96759e-07
6.36906e-07
3.44701e-07
-6.3859e-07
-6.40469e-07
1.36697e-07
1.24757e-07
-1.09877e-07
-9.64934e-08
-1.91096e-07
3.34929e-08
7.64308e-07
5.60485e-07
-3.42412e-07
-6.07036e-07
-3.32762e-07
-2.31867e-07
2.66277e-08
2.94803e-07
3.58955e-08
-4.06566e-07
-3.55724e-07
-1.25588e-08
4.36996e-07
9.74395e-07
3.20548e-07
-7.24711e-07
-5.018e-07
1.69535e-07
1.81817e-07
-8.51065e-08
-1.5386e-07
-1.75876e-07
-6.23311e-08
3.50569e-08
4.05704e-08
-2.84101e-08
-5.13795e-08
-1.44118e-08
7.80374e-08
5.635e-07
1.04438e-06
5.08085e-07
-7.36196e-07
-9.76609e-07
-1.58727e-07
1.88256e-07
8.23678e-08
-1.77556e-09
-1.95247e-07
-1.79822e-07
6.53627e-07
8.26938e-07
-1.09215e-07
-5.73113e-07
-6.3274e-07
-2.30456e-07
4.25169e-07
3.08258e-07
-3.37642e-07
-6.02717e-07
-3.3829e-07
2.0599e-10
4.29193e-09
3.52688e-07
6.7347e-07
-9.9091e-08
-5.61275e-07
-1.65438e-07
2.06199e-07
1.00449e-07
-4.08003e-08
-1.42241e-07
-2.0984e-08
7.9222e-08
4.88521e-08
-7.94296e-08
-1.02045e-07
-1.43815e-08
2.50917e-08
6.05825e-07
1.51347e-06
8.03697e-07
-9.02532e-07
-1.2561e-06
-3.19149e-07
3.30695e-07
2.91565e-07
-6.44353e-08
-3.40742e-07
-2.96719e-07
3.00805e-07
7.95417e-07
9.3812e-09
-9.12879e-07
-4.75093e-07
5.44008e-07
3.80169e-07
-4.8853e-07
-5.93604e-07
-2.19125e-07
-4.53291e-08
1.16365e-08
2.39939e-08
3.24622e-08
4.96147e-07
3.56235e-07
-3.44935e-07
-3.99113e-07
9.19632e-09
1.70229e-07
8.82444e-08
-5.26647e-08
-4.74884e-08
1.79594e-08
1.33541e-08
-6.68876e-08
-1.03161e-07
-2.63473e-08
1.20075e-08
5.67614e-07
1.84012e-06
1.20912e-06
-1.0848e-06
-1.5863e-06
-2.35648e-07
6.40895e-07
2.80505e-07
-4.21116e-07
-5.5621e-07
-2.16473e-07
7.33222e-08
8.88998e-08
-2.18181e-07
-3.29799e-08
8.17091e-07
5.12814e-07
-7.65613e-07
-6.03629e-07
3.78708e-07
1.10997e-07
-5.17397e-07
-3.38375e-07
-2.88206e-08
8.69112e-09
2.09617e-07
5.51855e-07
1.12059e-07
-4.33838e-07
-3.29123e-07
4.57252e-08
-1.36264e-08
2.90884e-08
4.12928e-08
9.64394e-08
2.25054e-08
-1.40731e-07
-1.57975e-07
-4.31112e-08
4.2436e-09
3.87864e-07
1.61115e-06
1.3541e-06
-1.05249e-06
-1.6365e-06
1.31522e-08
6.73013e-07
-1.22592e-07
-6.81726e-07
-4.36171e-07
-5.21714e-08
2.3668e-09
-1.9998e-09
3.08406e-07
7.90934e-07
4.55627e-07
-7.12925e-07
-6.05301e-07
6.40914e-07
5.68538e-07
-3.20607e-07
-4.99127e-07
-3.23202e-07
-2.06538e-07
-7.57841e-08
-6.44371e-08
2.89894e-07
4.77529e-07
-3.26314e-08
-4.35362e-07
-2.71949e-07
-2.63251e-07
-1.24954e-07
8.04934e-08
9.94234e-08
-1.32843e-07
-2.02666e-07
-5.27548e-08
7.01448e-09
-1.3112e-08
2.56757e-07
8.93155e-07
6.27284e-07
-7.67205e-07
-9.45237e-07
-1.90552e-08
1.34792e-07
-1.83983e-07
-1.93759e-07
-7.02793e-08
-2.74932e-09
7.1141e-08
2.51721e-07
3.78811e-07
-1.10057e-08
-5.05154e-07
-2.45478e-08
4.49354e-07
-1.23601e-07
-3.96386e-07
-9.25184e-08
1.48469e-07
5.85016e-07
2.39887e-07
-4.74252e-07
-4.80896e-07
-2.22521e-07
2.24861e-07
3.51533e-07
5.33603e-08
-2.3012e-07
-2.64979e-07
-2.51053e-07
-1.10743e-07
-3.92308e-08
-3.58957e-08
-2.0311e-08
-4.5449e-09
5.05531e-09
5.97023e-08
2.32948e-07
3.61331e-07
5.6303e-08
-3.86949e-07
-3.31938e-07
-9.41934e-08
-4.9399e-09
2.4025e-08
2.15029e-08
-4.7526e-09
-1.08627e-08
2.6823e-08
7.42494e-08
3.76493e-09
-1.2212e-07
2.28571e-08
1.22508e-07
-9.88412e-08
3.21261e-08
3.99846e-07
1.00004e-07
-4.9061e-07
4.1386e-07
1.54343e-06
1.03984e-07
-1.27776e-06
-7.97703e-07
4.94228e-08
3.53468e-07
1.63774e-07
-1.111e-07
-1.02147e-07
-2.47789e-08
-2.31259e-10
-1.03451e-08
-2.52895e-08
-1.91244e-08
9.55881e-09
4.61636e-08
9.43468e-08
1.55752e-07
1.28805e-07
-4.27017e-08
-1.58066e-07
-1.10505e-07
-5.32012e-08
-2.47875e-08
4.26127e-08
8.00343e-08
-5.00219e-09
-9.27188e-08
-6.11672e-08
-8.07891e-10
1.27682e-08
1.94575e-08
6.393e-09
-4.34827e-08
6.7064e-09
2.12143e-07
3.62421e-07
1.8486e-07
-2.94705e-07
-2.74827e-07
8.09508e-07
8.16306e-07
-6.50361e-07
-9.12441e-07
-5.36828e-08
2.25059e-07
-6.43342e-08
-1.89692e-07
2.14077e-08
-8.75835e-09
-6.70719e-09
9.42344e-08
1.16419e-07
-1.99943e-08
-1.21336e-07
1.24188e-08
1.4595e-07
4.349e-08
-1.0168e-07
-1.18052e-07
-3.82873e-08
6.7275e-08
1.22736e-07
1.75867e-08
-1.00916e-07
-8.29911e-08
-2.62076e-08
8.96377e-09
3.52666e-08
3.19546e-08
-1.18819e-08
-4.47298e-08
-6.02832e-09
1.27402e-07
2.76519e-07
2.5994e-07
3.64528e-08
-2.22588e-07
-3.03294e-07
-1.32858e-07
1.57329e-07
2.20347e-07
-1.17303e-07
-2.82148e-07
-9.82385e-08
2.2417e-08
-1.72393e-08
-2.23562e-08
6.34365e-08
1.08904e-07
-3.73818e-08
-1.1385e-07
-2.06214e-08
1.83579e-08
-1.30199e-08
1.746e-07
3.69516e-07
3.04213e-08
-3.39346e-07
-2.02571e-07
-1.88605e-08
7.86334e-08
1.93823e-07
4.99033e-08
-1.77574e-07
-1.57709e-07
-4.54305e-08
2.46706e-09
1.97484e-09
1.49462e-09
5.34065e-08
1.3262e-07
1.3176e-07
3.57019e-08
-4.5837e-08
-6.29485e-08
-7.43174e-08
-9.13518e-08
-5.08161e-08
1.59845e-08
1.42402e-08
-2.79322e-08
-1.85021e-08
6.09904e-08
1.08289e-07
3.42713e-08
-8.84653e-08
-8.42843e-08
-1.22012e-07
-3.23276e-08
3.82464e-09
1.93619e-08
5.21024e-08
1.01033e-07
1.68341e-07
3.33147e-07
5.58106e-07
3.68065e-07
-3.32993e-07
-6.80389e-07
-3.96931e-07
-9.20142e-08
-9.52998e-09
-7.36727e-09
1.1856e-08
5.33626e-08
7.03957e-08
3.87175e-08
-1.32268e-08
-5.06835e-08
-5.8053e-08
-3.23353e-08
-5.44518e-09
-8.97856e-09
5.79101e-09
4.55236e-08
1.26963e-08
-3.96752e-08
2.43968e-08
7.45523e-08
-2.87273e-08
-6.67297e-08
9.04669e-08
2.31337e-07
1.86599e-07
-9.74102e-10
-1.74611e-07
-2.0833e-07
-1.79073e-07
-2.74556e-07
-2.7345e-07
1.55331e-08
4.21093e-07
4.4224e-07
3.15919e-08
-3.05568e-07
-2.93755e-07
-1.37807e-07
-5.64815e-08
-5.02772e-08
-4.7687e-08
-2.50364e-08
4.36226e-09
2.64802e-08
2.48684e-08
-1.15917e-09
-1.35604e-08
3.19904e-08
9.89613e-08
7.67139e-08
-3.89638e-08
-1.01284e-07
-5.97387e-08
-1.1337e-08
1.63918e-09
1.07286e-09
2.49951e-09
4.30222e-08
9.95542e-08
6.09978e-08
-7.20582e-08
-1.05078e-07
7.28866e-08
2.69118e-07
2.78007e-07
1.43988e-07
1.37981e-09
-9.70803e-08
-7.02772e-10
-9.71658e-10
1.37363e-09
4.66614e-09
5.1829e-09
1.23762e-09
-2.46545e-09
-2.30764e-09
1.47091e-09
7.49687e-09
1.59132e-08
2.50431e-08
3.08018e-08
3.01071e-08
2.31549e-08
1.51953e-08
1.12599e-08
5.28371e-10
-3.85499e-08
-7.80622e-08
-5.51373e-08
-9.33556e-09
1.07081e-08
2.93726e-09
-9.83263e-09
-1.31028e-08
-7.1147e-09
1.34079e-08
4.59027e-08
6.18035e-08
1.85323e-08
-6.82628e-08
-1.09274e-07
-6.41509e-08
-2.32799e-09
-3.71592e-09
-1.72634e-08
-6.08679e-09
1.85877e-09
1.91844e-09
-8.16038e-10
9.01729e-10
2.71371e-08
6.43266e-08
7.13862e-08
3.17377e-08
-1.48109e-08
-2.9255e-08
-3.66244e-09
5.28822e-08
1.3659e-07
2.33081e-07
3.10298e-07
3.3763e-07
3.08137e-07
2.81194e-07
3.3772e-07
3.79932e-07
-2.22885e-08
-9.52101e-07
-1.21675e-06
-5.10638e-07
3.18905e-08
1.33473e-07
-6.91241e-09
-2.3788e-07
-2.91367e-07
-3.20314e-08
4.27192e-07
7.51986e-07
5.01149e-07
-4.02116e-07
-1.26273e-06
-1.27535e-06
-5.23027e-07
6.60634e-08
-7.91909e-08
-1.3529e-07
-3.06975e-08
1.099e-08
1.38208e-09
-4.51798e-09
2.23198e-08
6.3031e-08
8.05539e-08
4.79478e-08
2.65078e-09
-1.67979e-08
-2.16359e-08
-6.11573e-09
6.47428e-08
1.87421e-07
3.00487e-07
3.31239e-07
2.60242e-07
2.14285e-07
3.82463e-07
7.26799e-07
7.63448e-07
-1.18045e-07
-1.07454e-06
-6.62245e-07
-3.76911e-08
2.03392e-07
2.35988e-07
-1.56277e-07
-4.42115e-07
-2.50387e-07
2.36396e-07
6.98298e-07
7.51795e-07
1.30387e-07
-7.94876e-07
-1.18055e-06
-7.42692e-07
1.70603e-08
1.57598e-07
-1.98276e-07
-2.04357e-07
-3.50003e-08
-4.32032e-08
-4.2922e-09
2.96699e-09
2.14723e-08
3.32121e-08
1.64832e-08
-8.96632e-09
-2.47702e-08
-4.71323e-08
-6.04649e-08
-2.25892e-08
7.37131e-08
1.73905e-07
1.69615e-07
2.06507e-08
-8.03347e-08
6.77194e-08
4.05317e-07
6.52462e-07
3.22066e-07
-1.11486e-07
4.14689e-07
1.54692e-07
-3.93698e-07
-9.05119e-09
-4.33854e-08
-3.43481e-07
-2.34882e-07
3.23708e-08
3.25521e-07
5.02828e-07
2.73159e-07
-2.04905e-07
-3.22517e-07
1.46207e-07
6.81919e-07
5.22302e-07
-2.7932e-07
-6.68179e-07
-3.53176e-07
-3.57016e-07
-2.43302e-08
5.00423e-10
1.7536e-08
3.72326e-08
3.52189e-08
2.27854e-08
7.25628e-09
-3.33198e-08
-6.23587e-08
-3.25054e-08
5.93191e-08
1.77062e-07
1.6423e-07
-7.51702e-08
-2.42616e-07
-1.24435e-07
1.00337e-07
3.38426e-07
1.29716e-07
-3.86118e-08
1.40263e-06
8.80862e-07
-1.1955e-06
-6.99416e-07
2.33777e-08
-2.52749e-07
-1.7495e-07
-1.12312e-08
1.09488e-07
2.66901e-07
1.69977e-07
-1.61262e-07
-9.52563e-08
7.35662e-07
1.59787e-06
1.29229e-06
1.98982e-09
-1.13437e-06
-1.1614e-06
-1.24655e-06
-2.18278e-07
-4.745e-09
3.08986e-08
6.17795e-08
6.3077e-08
6.56213e-08
8.25514e-08
3.16051e-08
-7.34408e-08
-7.61268e-08
4.85859e-08
1.94635e-07
1.5296e-07
-1.30196e-07
-2.3715e-07
-8.22064e-08
1.41996e-08
2.63974e-07
2.41841e-07
-2.20229e-07
1.43153e-06
1.9156e-06
-1.27253e-06
-1.40327e-06
5.93916e-08
-1.99563e-07
-2.8148e-07
-7.04065e-08
7.82918e-08
2.25911e-07
1.54523e-07
-2.16807e-07
-3.18111e-07
4.00954e-07
1.65766e-06
2.16885e-06
1.30887e-06
-3.14051e-07
-1.89313e-06
-2.56257e-06
-9.73532e-07
-8.19957e-08
5.50231e-08
9.07402e-08
7.60182e-08
6.67809e-08
1.13937e-07
1.33411e-07
-8.98195e-09
-1.32724e-07
-1.12038e-08
1.45385e-07
4.13465e-08
-1.69706e-07
-6.21551e-08
3.27189e-08
-4.20765e-08
1.49892e-07
2.44259e-07
-7.90336e-08
1.36437e-06
2.4002e-06
-1.17103e-06
-1.93043e-06
-6.41932e-08
-5.74588e-08
-2.26021e-07
-6.87452e-08
1.2104e-07
2.90713e-07
1.71652e-07
-3.85243e-07
-7.72606e-07
-2.43004e-07
1.01421e-06
2.1116e-06
2.40797e-06
1.9547e-06
-1.03546e-06
-2.89742e-06
-2.54036e-06
-5.11482e-07
8.05349e-08
1.35549e-07
9.66954e-08
2.90799e-08
1.4577e-08
7.50729e-08
1.47771e-07
1.06848e-07
8.30145e-08
6.6951e-08
-2.10844e-07
-2.75186e-07
1.0602e-07
2.87753e-08
-1.56554e-07
5.56707e-08
1.00915e-07
1.58995e-07
1.69637e-06
2.1316e-06
-1.39465e-06
-2.00015e-06
-2.05717e-07
1.79079e-08
-5.01278e-08
8.83315e-08
3.11378e-07
5.28169e-07
4.44206e-07
-2.90086e-07
-1.27728e-06
-1.19453e-06
9.7576e-08
1.38423e-06
2.37431e-06
3.99685e-06
2.29443e-06
-5.92118e-07
-4.20866e-06
-1.69675e-06
-2.81421e-09
1.99969e-07
1.1375e-07
-9.57883e-09
-7.69668e-08
-7.63699e-08
6.83569e-08
4.3103e-07
5.90128e-07
1.44002e-07
-6.80791e-07
-6.37903e-07
1.14166e-07
-3.27672e-08
-2.56045e-07
-9.00957e-09
2.17609e-08
4.50453e-07
2.06301e-06
1.64618e-06
-1.64617e-06
-1.85734e-06
-2.91661e-07
4.05503e-08
4.09789e-08
1.58067e-07
4.06912e-07
7.21803e-07
8.21574e-07
2.56081e-07
-1.02731e-06
-1.75933e-06