/*--------------------------------*- C++ -*----------------------------------*\
| =========                 |                                                 |
| \\      /  F ield         | OpenFOAM: The Open Source CFD Toolbox           |
|  \\    /   O peration     | Version:  5.0                                   |
|   \\  /    A nd           | Web:      www.OpenFOAM.org                      |
|    \\/     M anipulation  |                                                 |
\*---------------------------------------------------------------------------*/
FoamFile
{
    version     2.0;
    format      ascii;
    class       volScalarField;
    location    "50.4676134421789371";
    object      Cuv;
}
// * * * * * * * * * * * * * * * * * * * * * * * * * * * * * * * * * * * * * //

dimensions      [0 2 -3 0 0 0 0];

internalField   nonuniform List<scalar> 
60000
(
-1.5246e-10
-1.42024e-10
4.95335e-11
1.50389e-10
4.62871e-11
-1.33869e-11
4.86263e-12
5.67756e-11
6.8504e-11
3.28761e-11
-5.79684e-11
-1.18091e-10
-7.62546e-11
-3.15951e-12
3.36005e-11
-3.42195e-11
-1.06191e-10
-2.24437e-10
-3.76727e-10
-4.5766e-10
2.0781e-10
1.28041e-09
8.07e-10
-1.26685e-09
-1.70225e-09
1.63101e-09
4.10288e-09
2.21604e-09
2.47832e-11
-1.3188e-10
2.31102e-10
4.39707e-10
7.31862e-11
-5.13079e-10
-2.95376e-10
-1.52839e-10
-5.24424e-11
1.14781e-10
4.81266e-11
-5.05287e-11
-4.91598e-09
-3.9023e-09
1.62295e-09
2.10192e-09
-1.1714e-09
-1.02685e-09
6.37502e-10
9.50685e-10
1.77537e-09
3.51921e-09
5.00064e-10
-7.29519e-09
-8.6532e-09
-5.40254e-09
-4.47518e-09
-3.83647e-09
-1.97148e-10
8.33914e-09
1.6522e-08
1.72299e-08
1.29863e-08
-1.40338e-09
-3.34386e-08
-6.65286e-08
-5.16785e-08
4.16482e-08
1.4011e-07
1.24778e-07
3.27797e-08
-1.30702e-08
-9.53943e-09
4.41926e-09
1.27208e-08
2.70353e-09
-1.12998e-08
-6.58995e-09
-5.36174e-09
-8.99242e-10
4.23494e-09
1.23494e-09
1.83493e-09
-1.60706e-08
-8.72469e-09
2.00259e-09
-4.72634e-10
-3.67013e-09
3.13325e-10
7.09573e-10
1.3824e-09
1.05153e-08
1.38243e-08
-9.11766e-09
-2.82394e-08
-2.14058e-08
-2.08136e-08
-2.40043e-08
-8.34242e-09
2.60978e-08
5.13146e-08
5.52089e-08
4.21133e-08
-9.08265e-09
-1.0697e-07
-1.6679e-07
-1.11368e-07
6.07744e-08
2.41551e-07
2.43825e-07
8.47842e-08
-2.66822e-08
-3.28093e-08
-1.1587e-08
1.43151e-08
2.42331e-08
-4.44169e-09
-1.90722e-08
-9.78438e-09
-1.2909e-08
3.6337e-09
1.97466e-08
1.29633e-08
-2.3004e-08
-1.08613e-08
1.00449e-08
6.00858e-09
-6.79025e-09
-7.65616e-09
-1.62975e-09
-7.75186e-10
9.23639e-09
2.20046e-08
-8.41862e-09
-3.37331e-08
-1.37061e-08
-2.10577e-08
-4.29384e-08
-1.34361e-08
3.07121e-08
1.19226e-08
1.81908e-08
7.57599e-08
4.12532e-08
-1.21492e-07
-1.95222e-07
-7.89835e-08
9.76956e-08
2.17087e-07
1.6722e-07
7.59857e-09
-4.4643e-08
9.40856e-09
1.82163e-08
1.09146e-09
9.33015e-09
4.40247e-10
-4.51814e-09
2.17985e-08
-1.01841e-08
-2.44945e-08
1.9913e-08
2.53324e-08
-2.97179e-08
-1.38999e-08
3.0992e-08
1.94122e-08
-7.86391e-09
-1.94906e-08
-8.40711e-09
3.43113e-10
5.05077e-09
3.18874e-08
-9.88114e-10
-5.44046e-08
-5.30528e-09
-9.33213e-09
-7.43897e-08
-1.9894e-08
6.29546e-08
-5.68976e-08
-1.20565e-07
1.27937e-07
2.01831e-07
-1.05267e-07
-2.78435e-07
-4.30784e-08
1.78887e-07
2.5369e-07
1.76854e-07
-2.97641e-08
-1.16506e-07
1.29667e-08
8.06611e-08
2.62328e-08
-1.42594e-08
-1.46741e-08
6.55533e-09
7.09271e-08
4.02897e-08
-5.7038e-08
-1.75567e-08
3.01691e-08
2.99527e-09
-4.58945e-08
1.60624e-08
3.07534e-08
-1.3362e-09
-1.96629e-08
-1.36559e-08
3.44318e-09
-3.13302e-09
3.08329e-08
4.21941e-08
-6.10835e-08
-5.49581e-08
-3.92957e-08
-1.43847e-07
-3.55426e-08
1.50611e-07
-6.90254e-08
-3.98064e-07
7.24102e-08
4.59445e-07
-2.99725e-08
-3.86434e-07
1.33038e-08
2.49328e-07
2.49854e-07
2.13212e-07
8.42501e-08
-1.19519e-07
-1.38402e-07
-2.06664e-09
4.11839e-08
-5.27107e-09
-2.94371e-08
3.0989e-09
7.66376e-08
9.12292e-08
-3.73307e-08
-7.95396e-08
-2.5582e-08
4.33551e-08
-2.45977e-08
-2.50793e-08
1.39649e-08
7.49188e-09
-4.28523e-09
-1.46137e-09
1.12259e-08
-7.97496e-09
-1.25335e-08
6.62749e-08
2.17414e-08
-5.63859e-08
-1.48557e-07
-2.76938e-07
-2.98929e-08
2.92245e-07
-1.96987e-08
-7.49798e-07
-2.18227e-07
7.35636e-07
2.34704e-07
-3.2364e-07
5.62066e-08
2.15087e-07
2.04947e-07
2.04625e-07
1.59358e-07
4.17282e-08
-1.201e-07
-1.66213e-07
-9.18066e-08
-3.54285e-08
-2.23335e-08
1.66175e-08
7.21868e-08
9.58666e-08
2.15151e-08
-8.84424e-08
-6.86206e-08
5.02162e-10
1.17633e-08
-1.19513e-08
-7.4847e-09
2.19383e-09
3.93624e-09
1.22288e-08
2.60034e-08
-4.432e-09
-9.10437e-08
1.45132e-08
1.42071e-07
5.71159e-08
-2.90959e-07
-4.60431e-07
2.00721e-08
4.57226e-07
9.25215e-08
-1.01085e-06
-7.24135e-07
8.72157e-07
6.90781e-07
-8.6325e-08
-2.70487e-08
9.69906e-08
1.97647e-07
2.19827e-07
1.4682e-07
8.35141e-08
1.90392e-08
-6.78716e-08
-1.6044e-07
-1.94973e-07
-1.09297e-07
3.02474e-08
9.88378e-08
8.36459e-08
4.38811e-08
-3.21832e-08
-3.8819e-08
-4.139e-08
-8.90098e-09
5.17729e-09
-1.20651e-08
5.76256e-09
1.86022e-08
3.02668e-10
1.53331e-09
-2.29462e-08
-1.9428e-07
-1.24916e-07
2.61462e-07
2.17024e-07
-4.26574e-07
-5.84458e-07
1.10364e-07
5.7697e-07
2.35557e-07
-1.00765e-06
-1.23022e-06
7.38368e-07
1.16998e-06
2.50447e-07
-2.04302e-07
-9.05158e-08
1.81203e-07
2.33047e-07
1.22496e-07
4.17397e-08
1.24437e-08
3.75916e-08
2.51635e-08
-1.50557e-07
-2.66234e-07
-9.56351e-08
1.04765e-07
1.11211e-07
4.71883e-08
1.27013e-08
1.77596e-08
-1.39558e-08
-1.35758e-08
-2.1115e-08
-3.58581e-08
-2.72024e-10
3.77869e-08
1.11765e-08
-1.72783e-08
-1.0429e-07
-3.54881e-07
-3.00572e-07
3.4277e-07
3.42794e-07
-4.87931e-07
-5.67003e-07
2.22434e-07
6.1971e-07
3.30949e-07
-6.53522e-07
-1.40846e-06
3.37835e-07
1.53243e-06
6.00634e-07
-4.63237e-07
-3.32976e-07
1.49087e-07
2.24353e-07
9.3096e-08
5.51589e-09
-2.79612e-08
2.13014e-08
1.11181e-07
3.71527e-08
-1.84903e-07
-2.17645e-07
-1.89269e-08
1.03955e-07
7.62053e-08
4.13418e-08
5.25323e-08
5.38591e-08
2.46122e-09
-6.73573e-08
-4.8034e-08
-2.88462e-09
2.21986e-08
8.0056e-09
-2.01602e-09
-8.94552e-08
-4.66233e-07
-5.13214e-07
2.99869e-07
4.2705e-07
-3.80502e-07
-4.88952e-07
2.47495e-07
6.25947e-07
3.50758e-07
-1.907e-07
-1.02316e-06
-1.27892e-07
1.53424e-06
8.39568e-07
-6.13733e-07
-5.03811e-07
8.41123e-08
1.76437e-07
5.80173e-08
-2.02316e-08
-5.07587e-08
1.19298e-08
1.26106e-07
9.67733e-08
-9.24363e-08
-1.80122e-07
-7.35078e-08
4.3196e-08
6.58748e-08
4.80428e-08
3.07404e-08
8.51713e-08
1.41734e-08
-6.51493e-08
-1.71241e-08
-1.13562e-08
-2.49616e-08
-6.14593e-09
7.82411e-09
-1.74343e-08
-3.70058e-07
-6.29078e-07
1.33991e-07
5.01269e-07
-1.97102e-07
-4.43467e-07
1.58652e-07
5.51743e-07
3.38369e-07
3.40586e-09
-4.50754e-07
-2.91421e-07
1.0761e-06
8.10673e-07
-4.41537e-07
-4.49072e-07
5.2076e-09
9.90794e-08
2.43589e-08
-4.84911e-08
-8.26733e-08
1.43802e-08
1.77734e-07
1.44656e-07
-7.45303e-08
-1.6282e-07
-5.069e-08
3.76828e-08
3.90775e-08
2.40907e-08
1.95638e-08
3.41788e-08
4.25472e-09
2.44047e-08
6.30356e-08
-1.6304e-08
-8.34931e-08
-4.17756e-08
9.10301e-09
1.95341e-08
-2.28304e-07
-5.92093e-07
-6.07015e-08
5.16557e-07
2.73926e-08
-3.63378e-07
-1.60704e-08
3.42443e-07
3.43104e-07
7.44859e-08
-2.20487e-07
-1.69039e-07
5.74646e-07
5.69163e-07
-5.63311e-08
-2.72754e-07
-1.12733e-07
1.88669e-08
2.70915e-09
-7.10219e-08
-1.23098e-07
-2.66022e-08
2.22913e-07
2.43181e-07
-3.89753e-08
-1.70857e-07
-4.88215e-08
3.64263e-08
1.40905e-08
1.37862e-08
3.67049e-08
1.59608e-08
-1.45187e-08
8.6774e-08
1.25615e-07
4.10001e-09
-9.92181e-08
-8.25228e-08
-2.26271e-08
3.96799e-08
-1.17444e-07
-5.90907e-07
-3.02256e-07
5.03732e-07
3.05936e-07
-2.43797e-07
-2.34349e-07
8.0824e-08
3.35639e-07
2.18936e-07
-1.55229e-07
-8.38888e-08
3.15576e-07
4.20096e-07
1.5731e-07
-2.03314e-07
-1.81557e-07
-1.57851e-08
-8.16822e-09
-6.67772e-08
-1.19857e-07
-8.47431e-08
1.80998e-07
3.26331e-07
2.34993e-08
-1.955e-07
-7.67452e-08
2.66076e-08
-9.8446e-09
-1.91147e-08
1.35535e-09
2.30955e-08
2.46226e-08
7.63028e-08
7.09463e-08
-2.47934e-09
-5.24348e-08
-5.66449e-08
-4.95283e-08
1.86417e-09
-5.90597e-08
-5.81659e-07
-5.8453e-07
4.1366e-07
5.99223e-07
-1.50368e-07
-4.81958e-07
-3.67318e-08
4.36875e-07
3.40919e-07
-1.65072e-07
-2.43817e-07
2.51423e-07
4.45512e-07
1.2728e-07
-1.49422e-07
-1.05911e-07
-5.12642e-09
2.24844e-09
-2.08918e-08
-6.23781e-08
-9.86507e-08
8.38906e-08
3.59722e-07
1.15008e-07
-2.65967e-07
-1.54813e-07
2.07049e-08
-1.2365e-08
-4.7418e-08
-4.70605e-08
2.79927e-09
7.65233e-08
1.25885e-07
5.10296e-08
-6.29596e-08
-7.58348e-08
-3.06147e-08
-6.0398e-09
-5.39292e-09
-1.23355e-07
-5.69173e-07
-6.50597e-07
3.65572e-07
7.36449e-07
-2.15323e-07
-5.62259e-07
1.41433e-07
5.35534e-07
3.36905e-07
-3.63941e-08
-2.57832e-07
4.46613e-08
2.94384e-07
1.1421e-07
-5.32339e-08
-3.44531e-08
2.35965e-09
7.87149e-09
-1.99203e-09
-4.21952e-08
-7.51898e-08
4.54316e-08
3.55042e-07
2.89161e-07
-2.5745e-07
-3.45515e-07
-5.57695e-08
5.25343e-10
-5.72541e-08
-5.25157e-08
-2.44135e-08
1.03147e-07
2.05498e-07
7.55472e-08
-1.27785e-07
-1.20434e-07
-2.33068e-08
-6.63606e-10
-6.27947e-09
-1.53705e-07
-5.47769e-07
-4.72253e-07
4.57383e-07
5.82796e-07
-3.40152e-07
-4.06388e-07
2.87595e-07
4.60866e-07
1.9164e-07
7.24923e-08
1.71741e-08
-5.20487e-08
-1.4125e-07
-8.04126e-08
2.07049e-07
2.22252e-07
-3.59913e-09
-3.3554e-08
7.66747e-09
-6.81995e-08
-9.655e-08
3.60588e-08
2.9917e-07
4.25871e-07
-2.63921e-09
-4.5186e-07
-3.02002e-07
-4.01723e-08
-1.32983e-08
-1.46886e-08
-5.39837e-09
1.04523e-07
2.09e-07
7.2008e-08
-1.63126e-07
-1.01704e-07
4.46205e-08
-1.57724e-08
-9.28958e-08
-1.85073e-07
-3.9974e-07
-1.55841e-07
4.60795e-07
2.3918e-07
-3.88469e-07
-2.00298e-07
3.35089e-07
3.54067e-07
7.62642e-08
6.16233e-08
1.14056e-07
-1.55651e-07
-3.68681e-07
2.94477e-08
3.68704e-07
1.02075e-07
3.77556e-08
1.56939e-07
3.68238e-09
-8.02871e-08
-9.86778e-08
-7.41921e-08
1.6496e-07
3.88529e-07
2.91977e-07
-1.4989e-07
-4.00837e-07
-2.12663e-07
-2.07086e-08
-4.73359e-08
-9.50284e-09
1.0448e-07
2.45713e-07
5.11619e-08
-2.23902e-07
-2.08309e-08
2.22716e-07
-1.24073e-08
-2.66712e-07
-2.15041e-07
-1.28643e-07
6.48682e-08
2.52459e-07
8.12969e-09
-2.57156e-07
-9.91752e-08
2.05734e-07
2.44276e-07
4.10163e-08
9.16192e-09
6.70385e-08
-6.77377e-08
-1.86342e-08
1.62108e-07
4.24599e-08
-4.62508e-08
-1.00661e-07
-2.86013e-07
-1.40428e-07
2.84791e-07
2.50902e-07
-1.61832e-07
-6.89428e-08
2.97383e-07
3.6232e-07
1.78542e-07
-8.81125e-08
-2.10189e-07
-1.33201e-07
-8.87611e-08
-9.3355e-08
1.52421e-07
2.53321e-07
-7.7939e-08
-2.37072e-07
-2.8747e-08
1.19853e-07
-1.378e-08
-2.62749e-07
-2.06176e-07
1.07311e-07
2.36768e-07
1.01462e-07
-6.96707e-08
-1.31562e-07
-7.50454e-08
6.36323e-08
1.5158e-07
6.65481e-08
-3.92495e-08
-1.30739e-08
4.90879e-08
8.42683e-08
4.53912e-08
-4.10712e-08
-9.7826e-08
-1.71151e-07
-2.23606e-07
-1.16393e-07
1.70125e-07
2.85709e-07
-6.03712e-08
-1.81523e-07
1.44862e-07
2.6772e-07
1.62749e-07
6.37467e-08
4.10161e-09
-2.35717e-08
6.12871e-09
-1.80313e-08
1.53619e-08
3.92328e-08
1.21436e-08
2.53642e-08
-5.6469e-08
-2.52218e-07
-2.35266e-07
-5.00417e-08
1.06946e-07
2.18046e-07
1.76655e-07
3.87417e-08
-3.99058e-08
-6.95327e-08
-9.55315e-08
-6.77996e-08
6.55196e-08
1.71855e-07
7.69725e-08
-7.86617e-08
-6.0499e-08
6.2873e-08
9.38787e-08
2.33777e-08
-4.5492e-08
-8.74525e-08
-1.3072e-07
-1.39763e-07
3.76406e-09
2.09315e-07
5.39519e-08
-1.70411e-07
2.33274e-08
1.63609e-07
7.78078e-08
1.20821e-08
8.66526e-10
1.37656e-08
-7.91932e-08
-4.85294e-08
5.25049e-08
-1.45843e-08
-6.92997e-08
4.46122e-08
3.42614e-08
-2.29419e-07
-2.67997e-07
1.18034e-07
3.35548e-07
1.17841e-07
-4.94106e-08
2.3357e-08
5.67204e-08
2.80657e-08
-1.6161e-08
-7.1666e-08
-3.26531e-08
4.36643e-08
-2.12039e-08
-1.20102e-07
-2.04156e-08
1.47902e-07
1.19085e-07
-5.12461e-08
-1.45707e-07
-1.10288e-07
-5.64255e-08
-3.88702e-08
4.23121e-08
1.88573e-07
1.053e-07
-1.54759e-07
-9.01937e-08
1.2549e-07
1.07824e-07
1.36498e-08
2.20541e-08
1.36937e-08
3.79007e-08
-2.97478e-08
1.31759e-08
6.66336e-08
5.79685e-08
4.34276e-08
-8.09791e-08
-3.0611e-07
-2.60942e-07
1.5117e-07
3.46511e-07
8.60642e-08
-9.01476e-08
-7.21518e-08
-1.07493e-07
-5.22527e-08
8.77071e-08
9.86578e-08
2.51704e-08
-1.22836e-08
-1.89333e-08
-7.75937e-09
1.68171e-09
-4.43643e-08
-1.12219e-07
-1.14991e-07
-4.13046e-08
5.35101e-08
1.01507e-07
8.21564e-08
4.55578e-08
4.28732e-08
4.72187e-08
2.25918e-08
7.44786e-09
-2.23295e-09
-4.66259e-08
-7.52618e-08
-1.72593e-08
6.63395e-08
3.04742e-08
-9.01501e-09
-7.8966e-09
5.23754e-08
1.73673e-07
1.40807e-07
-2.40855e-07
-6.21092e-07
-4.73223e-07
8.79501e-08
4.30437e-07
3.12313e-07
9.16471e-08
-1.13633e-08
-5.99459e-08
-3.93758e-08
4.48957e-08
6.98217e-08
1.0823e-08
-4.74004e-08
-6.48029e-08
-5.5167e-08
-3.23574e-08
-7.63058e-09
4.68913e-09
2.21165e-09
1.26649e-09
2.35639e-08
5.387e-08
4.98725e-08
1.05227e-08
-3.11882e-08
-2.80354e-08
4.8875e-08
8.72381e-08
-1.69469e-08
-1.24414e-07
-7.06611e-08
5.45187e-08
8.39066e-08
5.94945e-08
-4.59966e-08
-7.72117e-08
4.79741e-08
2.03961e-07
1.1949e-07
-2.14734e-07
-4.14157e-07
-2.28463e-07
6.17438e-08
1.69145e-07
1.42944e-07
8.3337e-08
1.44271e-08
-2.57178e-08
-7.85473e-09
2.971e-08
3.71341e-08
-7.52281e-09
-9.15358e-08
-1.49969e-07
-1.02243e-07
3.82684e-08
1.31022e-07
9.50228e-08
1.63276e-08
-8.48483e-09
3.02055e-08
5.66019e-08
-2.75242e-08
-1.52822e-07
-1.12305e-07
8.05036e-08
1.61971e-07
3.3121e-08
-1.2799e-07
-1.28789e-07
2.16489e-08
1.49979e-07
1.49033e-07
1.88728e-11
4.40308e-11
5.60315e-11
1.74889e-11
-7.01698e-11
-1.20569e-10
-9.89858e-11
-4.39563e-11
-2.5725e-11
8.78755e-12
2.53368e-12
-5.87077e-11
1.65441e-11
1.94076e-10
7.6097e-11
-6.01569e-11
1.70616e-10
4.82179e-10
2.62746e-10
-3.29721e-10
-6.61994e-10
-7.36998e-11
1.13826e-09
1.10451e-09
4.79038e-10
5.53334e-10
3.30195e-10
-1.95875e-10
-4.75671e-10
-6.79192e-10
-5.07459e-10
1.58508e-10
4.86254e-10
-8.65403e-11
2.18432e-10
2.34247e-10
-7.12449e-10
-2.15019e-10
7.52222e-12
1.57045e-11
7.24692e-11
3.5364e-10
-8.56685e-11
-2.79025e-09
-3.84392e-09
-4.24387e-10
2.4678e-09
2.45253e-09
1.16254e-09
-1.91487e-10
-3.59818e-09
-8.24262e-09
-1.01277e-08
-1.09204e-08
-1.4197e-08
-1.22073e-08
3.37594e-09
2.77646e-08
4.48647e-08
3.28956e-08
5.50652e-09
-1.72324e-09
1.34216e-09
-1.64014e-09
7.58815e-09
4.44123e-08
5.42574e-08
1.34203e-08
-2.89594e-08
-4.41987e-08
-3.03766e-08
6.75698e-09
3.84191e-08
3.12213e-08
1.25312e-09
8.73728e-09
1.51452e-09
-8.33542e-09
-1.11764e-09
7.29991e-10
9.24241e-10
-1.48087e-09
-2.85188e-09
-9.85738e-09
-1.42635e-08
-2.95106e-09
1.27556e-08
1.50302e-08
7.33097e-09
2.22634e-09
-5.77691e-09
-2.21624e-08
-3.35436e-08
-4.36288e-08
-5.46308e-08
-4.53534e-08
-7.70993e-09
4.78684e-08
1.04481e-07
9.74685e-08
2.59888e-08
4.30413e-09
2.52183e-10
-4.2298e-08
-2.16903e-08
8.89459e-08
1.38837e-07
5.79955e-08
-4.43614e-08
-9.23516e-08
-8.41734e-08
-1.76694e-08
6.22721e-08
8.40662e-08
2.14763e-08
-1.42701e-08
5.10204e-09
-5.45277e-09
-4.10458e-09
5.03639e-09
5.91471e-09
-4.12034e-09
-5.80927e-09
-1.18861e-08
-1.6685e-08
-5.35354e-09
1.30565e-08
1.55369e-08
4.42973e-09
2.71213e-09
-1.07936e-10
-2.07822e-08
-4.17274e-08
-6.06202e-08
-6.8136e-08
-3.34692e-08
1.65445e-08
5.12268e-08
7.41207e-08
1.29329e-08
-7.66033e-08
3.10715e-08
1.03549e-07
-2.443e-08
-4.2888e-08
9.71837e-08
1.38283e-07
4.26876e-08
-2.82099e-08
-4.59897e-08
-6.3421e-08
-3.78992e-08
2.77951e-08
4.58387e-08
-2.0565e-08
-4.829e-08
3.56038e-08
2.43487e-08
-1.49489e-08
5.6556e-09
1.23648e-08
5.69187e-10
-7.33565e-09
-1.5149e-08
-2.08283e-08
-1.03329e-09
1.45001e-08
4.76234e-09
-9.62909e-09
3.85354e-10
1.41716e-08
-9.70207e-09
-5.24238e-08
-9.21966e-08
-9.33624e-08
-1.46422e-09
8.72662e-08
1.05794e-07
9.44778e-08
-9.26904e-08
-3.27088e-07
9.23419e-10
3.27278e-07
7.24093e-08
-8.04456e-08
1.19004e-07
1.83703e-07
5.16987e-08
-2.37852e-08
-6.24625e-09
-1.72574e-08
-2.57927e-08
8.85592e-09
6.81567e-09
-8.2559e-08
-1.20236e-07
7.01681e-08
1.32297e-07
-1.01353e-08
-2.50574e-08
-7.4696e-09
2.52171e-08
-1.09659e-08
-3.89947e-08
-4.20314e-08
1.12517e-08
4.41078e-08
6.77467e-11
-2.87578e-08
-9.67209e-10
3.05736e-08
9.74855e-09
-7.36265e-08
-1.64906e-07
-1.52908e-07
3.38619e-08
1.59836e-07
1.33986e-07
1.30401e-07
-1.11086e-07
-6.59686e-07
-2.40954e-07
5.6369e-07
2.7163e-07
-1.28196e-07
1.15695e-07
2.53539e-07
1.16833e-07
-2.30281e-08
-6.50218e-08
-4.51425e-08
-3.43175e-09
2.78558e-08
-7.37452e-09
-1.00814e-07
-1.78055e-07
2.68929e-08
2.71251e-07
7.20483e-08
-1.0941e-07
-1.22758e-07
5.17093e-08
1.61156e-08
-8.21251e-08
-8.94383e-08
1.98099e-08
1.02294e-07
1.96882e-08
-6.75693e-08
8.97033e-10
6.48687e-08
3.94598e-08
-8.61336e-08
-2.55879e-07
-2.14119e-07
8.7146e-08
2.21579e-07
1.17802e-07
1.02464e-07
-1.00802e-07
-9.85648e-07
-6.33022e-07
7.79519e-07
5.96183e-07
-9.69402e-08
7.05253e-08
2.21746e-07
1.35726e-07
1.90782e-08
-8.85495e-08
-1.01686e-07
8.49526e-09
6.63338e-08
-4.39903e-08
-1.6628e-07
-1.98999e-07
-4.44702e-08
3.24269e-07
2.7236e-07
-1.53035e-07
-2.93535e-07
-1.17675e-08
8.85091e-08
-1.03518e-07
-1.66635e-07
2.02518e-08
1.79534e-07
7.13143e-08
-1.2455e-07
-4.27331e-08
1.346e-07
1.05789e-07
-1.11878e-07
-3.5673e-07
-2.39332e-07
1.36978e-07
2.34486e-07
1.09879e-07
7.57943e-08
-1.0408e-07
-1.23187e-06
-1.05205e-06
9.28688e-07
9.75158e-07
3.53465e-08
9.44002e-09
1.18733e-07
9.63061e-08
3.28886e-08
-7.49276e-08
-9.48636e-08
7.53109e-08
1.99214e-07
-2.3291e-08
-3.09656e-07
-2.93359e-07
-8.60173e-08
2.57364e-07
4.21784e-07
-8.17913e-09
-3.30833e-07
-1.67845e-07
1.32219e-07
-6.64971e-08
-2.73469e-07
-4.65191e-09
3.16263e-07
1.6828e-07
-2.00208e-07
-1.96677e-07
1.57213e-07
2.49577e-07
-1.11627e-07
-4.46686e-07
-2.2033e-07
1.87569e-07
2.07886e-07
9.17388e-08
8.70343e-08
-1.2682e-07
-1.32952e-06
-1.34386e-06
9.75793e-07
1.31578e-06
2.26484e-07
-8.26958e-08
-1.55038e-08
5.11046e-08
3.28292e-08
-6.66383e-08
-8.90375e-08
1.1223e-07
3.43958e-07
1.6305e-07
-3.15348e-07
-4.47322e-07
-1.62504e-07
1.64092e-07
3.8291e-07
2.0061e-07
-1.93716e-07
-2.26294e-07
1.19123e-07
-8.5653e-08
-4.11678e-07
3.4851e-08
5.18474e-07
3.19617e-07
-2.45516e-07
-4.01119e-07
3.5269e-08
3.51402e-07
-4.33556e-10
-4.22518e-07
-1.53507e-07
1.7714e-07
9.72026e-08
9.35438e-08
1.78512e-07
-1.72908e-07
-1.26802e-06
-1.36624e-06
9.41842e-07
1.5682e-06
4.13068e-07
-2.33398e-07
-1.58821e-07
3.11886e-08
4.24098e-08
-5.73924e-08
-8.43237e-08
1.18451e-07
3.84399e-07
2.77438e-07
-1.89551e-07
-4.52699e-07
-2.45755e-07
7.6245e-08
2.31401e-07
2.13982e-07
-1.16528e-07
-1.57783e-08
1.64504e-07
-3.22121e-07
-5.58161e-07
1.73007e-07
6.6473e-07
4.07168e-07
-1.37269e-07
-4.91881e-07
-1.85306e-07
3.53264e-07
1.83226e-07
-2.62886e-07
-1.89148e-07
-1.5666e-08
-2.13398e-08
1.83378e-07
3.1366e-07
-2.66123e-07
-1.15453e-06
-1.12347e-06
8.75427e-07
1.68979e-06
4.6841e-07
-4.18804e-07
-2.18443e-07
6.02145e-08
4.73032e-08
-5.87557e-08
-8.15317e-08
1.232e-07
4.23685e-07
3.18402e-07
-1.66272e-07
-4.17018e-07
-2.35782e-07
3.85182e-08
1.10854e-07
3.83736e-08
-2.30038e-07
3.19341e-07
3.18064e-07
-6.08617e-07
-6.42919e-07
2.33139e-07
5.98173e-07
3.0277e-07
-4.19621e-08
-3.49262e-07
-3.61793e-07
2.04123e-07
3.78967e-07
-1.06463e-07
-3.32832e-07
-1.94289e-07
-1.32321e-09
3.00208e-07
3.64173e-07
-3.57624e-07
-1.14481e-06
-8.57986e-07
8.63997e-07
1.61536e-06
3.52764e-07
-4.39395e-07
-1.48999e-07
8.01746e-08
3.85297e-08
-5.08137e-08
-7.89175e-08
7.1556e-08
4.22641e-07
4.28806e-07
-1.26174e-07
-4.53535e-07
-2.38534e-07
3.02559e-08
6.59229e-08
-1.28875e-07
-2.82648e-07
4.06896e-07
3.88706e-07
-5.88465e-07
-5.40016e-07
1.84122e-07
3.57835e-07
1.3688e-07
-7.31592e-08
-3.02985e-07
-4.36604e-07
3.20597e-08
5.06595e-07
7.80427e-08
-4.01403e-07
-2.42659e-07
7.16541e-08
3.14082e-07
3.36569e-07
-3.13168e-07
-1.12373e-06
-6.51375e-07
9.08505e-07
1.27191e-06
2.31066e-07
-2.35548e-07
-1.01467e-07
1.61817e-08
1.74423e-08
-2.32194e-08
-3.51528e-08
-5.75426e-09
2.63411e-07
5.12103e-07
8.75989e-08
-4.2738e-07
-3.153e-07
-1.17514e-08
1.58212e-08
-1.51192e-07
-9.53779e-08
2.54071e-07
1.57011e-07
-2.19073e-07
-1.563e-07
5.57157e-08
7.62753e-08
2.74402e-08
-4.30607e-08
-3.38888e-07
-6.44696e-07
-1.81846e-07
6.28263e-07
3.59331e-07
-3.17027e-07
-2.32913e-07
7.56203e-08
2.27092e-07
2.94462e-07
-1.36786e-07
-9.08515e-07
-4.62278e-07
7.75348e-07
9.23013e-07
2.80896e-07
-1.72855e-07
-2.24744e-07
-4.12008e-08
4.51878e-08
4.81248e-08
7.09184e-08
1.34418e-08
3.24149e-08
3.7406e-07
3.17157e-07
-2.22368e-07
-3.66215e-07
-1.17712e-07
-3.67954e-08
-1.24761e-07
2.01223e-08
1.46826e-07
9.76629e-08
1.0108e-07
2.55739e-09
-1.26745e-07
-7.57121e-08
-9.10982e-09
-2.83316e-09
-2.73341e-07
-8.29075e-07
-4.79921e-07
6.69409e-07
6.67429e-07
-1.22102e-07
-2.35538e-07
-2.14968e-08
1.2831e-07
2.72641e-07
4.26533e-08
-6.79591e-07
-5.01631e-07
5.44606e-07
7.82304e-07
2.2165e-07
-2.67492e-07
-2.52845e-07
2.89603e-08
1.87431e-07
1.64955e-07
1.02294e-07
4.91603e-08
-2.7187e-08
1.59944e-07
3.6469e-07
1.32202e-08
-2.9403e-07
-1.89469e-07
-8.41291e-08
-9.88302e-08
3.57149e-08
1.47418e-07
1.51907e-07
1.24804e-07
-3.47424e-08
-1.63411e-07
-8.86536e-08
-2.63778e-09
-1.21823e-08
-2.50283e-07
-8.81359e-07
-6.52498e-07
6.23055e-07
8.33789e-07
1.71231e-08
-2.94141e-07
-1.32097e-07
1.15975e-07
3.07534e-07
1.59942e-07
-3.85e-07
-4.39214e-07
3.47258e-07
5.96305e-07
-2.86696e-08
-4.41367e-07
-1.38271e-07
3.0362e-07
3.35949e-07
1.2069e-07
-5.37916e-10
-1.00478e-08
9.4126e-10
1.002e-07
3.14236e-07
1.75428e-07
-1.76538e-07
-2.17889e-07
-1.20893e-07
-9.36192e-08
6.14255e-09
1.35555e-07
1.53067e-07
9.93896e-08
-2.56e-08
-1.45702e-07
-1.07092e-07
-3.63766e-09
-1.60974e-08
-2.65981e-07
-8.59596e-07
-7.01593e-07
5.6646e-07
8.70139e-07
1.42302e-08
-3.70441e-07
-1.23569e-07
2.20435e-07
3.50984e-07
1.35423e-07
-1.55691e-07
-9.71277e-08
2.6069e-07
6.20411e-08
-5.43546e-07
-3.3663e-07
4.45769e-07
6.23336e-07
2.57244e-07
-7.29866e-08
-1.7588e-07
-5.604e-08
1.14911e-08
6.10478e-08
2.28169e-07
2.63178e-07
-2.28465e-09
-1.9673e-07
-1.62313e-07
-1.02879e-07
-3.8436e-08
6.65611e-08
1.34973e-07
1.35061e-07
-1.37803e-08
-1.69482e-07
-1.29123e-07
-6.76694e-09
-1.84859e-08
-2.8595e-07
-7.15066e-07
-4.83321e-07
5.52575e-07
7.00019e-07
-9.56513e-08
-3.27596e-07
4.13234e-08
3.14487e-07
2.61485e-07
3.93694e-08
-2.64875e-08
9.7201e-08
1.23345e-08
-4.38211e-07
-4.21732e-07
3.18508e-07
5.46102e-07
2.34144e-07
2.30473e-07
1.35278e-07
-2.14536e-07
-2.91628e-07
-5.82271e-08
9.38606e-08
1.95885e-07
2.26745e-07
1.23529e-07
-2.47876e-08
-1.10268e-07
-1.14489e-07
-7.63975e-08
-2.69368e-08
1.17807e-07
1.62549e-07
-2.7503e-08
-1.96053e-07
-1.0429e-07
3.5866e-08
-6.06748e-08
-3.31138e-07
-4.38581e-07
-3.46523e-08
5.0364e-07
3.18273e-07
-1.33475e-07
-8.75182e-08
1.22284e-07
1.35438e-07
6.36421e-08
2.72902e-08
3.54955e-08
-6.47028e-09
-1.70871e-07
-1.74623e-07
1.50087e-07
2.36085e-07
8.3719e-08
6.36215e-08
-8.62149e-08
-9.41845e-08
1.2408e-07
-2.40373e-07
-4.73496e-07
8.27721e-08
4.67714e-07
3.44163e-07
1.2751e-07
4.14427e-08
2.27533e-08
-2.96505e-08
5.09352e-08
-8.00087e-08
-3.88515e-08
4.6244e-08
-1.86737e-08
-8.48458e-08
-4.69629e-08
-3.37489e-08
-1.9834e-07
-3.66967e-07
-1.33232e-07
3.45184e-07
4.13651e-07
9.23173e-08
-7.37428e-08
-3.43047e-08
6.25093e-09
1.16524e-08
1.36397e-08
1.62432e-08
1.33194e-08
-1.26299e-08
-4.34037e-08
1.17115e-08
1.06078e-07
9.56255e-08
-5.43795e-08
-2.60752e-07
-3.00389e-07
1.61277e-08
3.45587e-07
-1.34019e-07
-8.22569e-07
-2.16151e-07
6.83798e-07
5.92702e-07
8.07648e-08
-7.43002e-08
6.6711e-08
1.53632e-07
8.04091e-08
6.08749e-09
-6.27936e-08
-1.0071e-07
-3.84561e-08
6.29005e-08
5.11866e-08
-1.0062e-07
-3.14841e-07
-3.88633e-07
-5.09966e-08
4.11649e-07
4.21207e-07
1.49276e-07
-2.5114e-08
-7.69703e-08
-5.20796e-08
2.2249e-09
4.68606e-08
3.85865e-08
-1.65225e-08
-3.16445e-08
8.37804e-09
5.09633e-08
5.13315e-08
-2.28407e-08
-1.36554e-07
-2.28121e-07
-2.25884e-07
-1.07636e-09
3.17781e-07
3.8748e-08
-6.57969e-07
-2.97919e-07
5.65354e-07
4.72978e-07
-2.80364e-08
-9.4492e-08
9.13148e-08
1.47807e-07
-1.71408e-08
-7.07116e-09
4.19071e-08
-5.40535e-08
-1.57853e-07
-4.47215e-08
1.4462e-07
1.73474e-08
-3.24435e-07
-2.78815e-07
1.48669e-07
3.45946e-07
2.11162e-07
1.34308e-07
6.9391e-08
-7.45906e-08
-1.02221e-07
-3.73604e-08
-6.54804e-09
-1.90721e-08
-3.97815e-08
-1.31781e-08
5.43023e-08
4.714e-08
-8.59787e-08
-2.23373e-07
-2.09138e-07
-6.57309e-08
6.98264e-08
1.79358e-07
2.21281e-07
-1.33651e-08
-3.82475e-07
-2.05941e-07
3.38728e-07
3.29457e-07
-1.73452e-08
-7.56277e-08
5.10438e-08
6.80402e-08
4.3889e-08
-4.63741e-08
1.40199e-09
3.13633e-08
-4.27623e-08
-4.16563e-08
5.27942e-08
-5.36492e-08
-3.80927e-07
-3.14408e-07
2.36636e-07
3.90036e-07
1.02525e-07
-1.68072e-09
-1.29122e-08
-4.48135e-08
-2.07641e-09
2.70293e-08
1.0872e-08
-7.39585e-10
-5.62911e-09
-1.37047e-08
-4.71326e-08
-9.66313e-08
-8.44707e-08
-1.73933e-08
9.79065e-09
1.05229e-09
3.14831e-08
9.37629e-08
7.75425e-08
-4.91167e-08
-9.3236e-08
5.43368e-08
1.48992e-07
4.82774e-10
-1.56497e-07
-9.55901e-08
7.99e-08
1.4594e-07
8.58098e-08
2.55252e-08
1.79269e-08
3.26758e-08
3.52613e-08
-1.86695e-08
-1.3374e-07
-2.75203e-07
-3.73895e-07
-2.38906e-07
1.55001e-07
3.87099e-07
2.60656e-07
7.62183e-08
8.9523e-09
1.76185e-09
-6.56013e-09
-3.2138e-08
-4.95863e-08
-4.06912e-08
-1.28397e-08
2.15356e-08
4.48892e-08
4.3001e-08
2.54206e-08
-6.63278e-09
-6.30799e-08
-8.21486e-08
-3.94568e-10
6.9797e-08
-1.7338e-08
-1.3659e-07
-3.00125e-08
1.86323e-07
1.53028e-07
-1.04277e-07
-2.38938e-07
-1.09408e-07
9.12938e-08
1.51764e-07
2.19611e-07
1.04366e-07
1.18369e-08
2.0677e-08
5.39389e-08
-2.13322e-08
-1.47816e-07
-1.49418e-07
-4.00843e-08
4.04609e-08
7.59566e-08
8.93099e-08
6.50997e-08
2.68809e-08
1.04324e-09
-1.43209e-08
-1.07407e-08
1.13771e-08
5.56704e-09
-5.42138e-08
-8.6531e-08
-6.10355e-09
9.15653e-08
7.4365e-08
8.02896e-09
-1.07823e-08
-1.75409e-08
-1.54076e-08
2.69774e-08
8.95093e-10
-1.25523e-07
-1.4798e-07
1.98137e-08
1.79872e-07
1.09656e-07
-1.35922e-07
-2.79017e-07
-1.74321e-07
6.04993e-08
2.23882e-07
1.49891e-10
2.86941e-11
-4.57269e-11
-1.08604e-10
-5.82788e-11
5.26715e-11
1.12852e-10
7.44519e-11
-7.2131e-11
-1.73539e-10
-1.10901e-10
9.76952e-11
2.76457e-10
-2.45552e-11
-2.48254e-10
9.06784e-11
3.16003e-10
3.3652e-10
7.32114e-10
9.33637e-10
2.42182e-11
-1.25204e-10
2.00113e-10
3.44734e-10
7.46148e-11
-1.34727e-10
-1.57719e-10
-3.16557e-10
-7.88539e-10
-1.15853e-09
-5.38382e-10
6.16668e-10
7.90542e-10
2.49956e-10
1.31438e-10
-1.18544e-10
-2.69098e-10
-1.62341e-10
-1.41708e-10
6.85099e-11
1.21487e-09
-7.85653e-10
-2.5385e-09
-3.5157e-09
-9.72859e-10
2.10761e-09
3.64421e-09
2.87707e-09
-1.07617e-09
-4.78554e-09
-5.58127e-09
-3.7304e-09
-1.78101e-09
-6.37854e-09
-1.03496e-08
-4.91319e-09
-5.41956e-10
1.72845e-09
3.36314e-08
7.36604e-08
3.55111e-08
-7.34106e-09
-1.43555e-10
9.21912e-09
9.18035e-09
3.47361e-09
-6.39109e-09
-1.99329e-08
-3.33332e-08
-3.24004e-08
-3.27035e-09
3.35666e-08
4.09051e-08
1.79584e-08
2.23641e-09
7.2994e-09
2.56153e-10
-6.28529e-09
-2.89106e-09
1.58403e-09
3.4587e-09
-3.4004e-09
-7.30082e-09
-8.25785e-09
-2.6473e-09
4.36811e-09
7.94037e-09
8.26429e-09
2.09208e-09
-6.59393e-09
-1.25346e-08
-1.65188e-08
-2.04084e-08
-2.80008e-08
-2.72655e-08
-1.01628e-08
-3.52416e-09
-1.91336e-08
2.00102e-08
1.39914e-07
1.08716e-07
-1.82395e-08
-1.3043e-08
2.33336e-08
2.47634e-08
1.91857e-08
-5.86052e-09
-3.98455e-08
-6.90678e-08
-7.42273e-08
-2.18586e-08
6.21045e-08
9.59504e-08
5.63367e-08
3.33562e-09
1.91751e-09
1.91551e-08
-3.5981e-09
-1.43251e-08
2.3299e-09
8.77666e-09
-3.06014e-09
-8.97926e-09
-9.50009e-09
-5.42931e-09
3.25787e-09
7.60142e-09
9.4499e-09
5.77056e-09
-2.96601e-09
-1.1817e-08
-2.232e-08
-3.22064e-08
-3.62095e-08
-1.74648e-08
1.40299e-08
1.14587e-08
-3.0222e-08
-2.66075e-08
7.43272e-08
2.49127e-08
-1.04818e-07
1.04983e-08
9.05976e-08
3.86697e-08
2.09544e-08
-8.61871e-09
-3.17809e-08
-4.63309e-08
-6.75865e-08
-3.86008e-08
4.63093e-08
8.05123e-08
2.40528e-08
-3.2669e-08
3.11081e-09
7.89541e-08
3.85542e-08
-4.86241e-08
-1.94101e-08
8.68676e-09
1.44039e-08
-2.99076e-09
-8.84505e-09
-1.03298e-08
-9.62264e-11
5.90161e-09
1.02027e-08
1.08764e-08
2.41809e-09
-9.03749e-09
-2.66049e-08
-5.03757e-08
-5.45151e-08
-7.69788e-09
5.22587e-08
4.29813e-08
-3.24539e-08
-5.24771e-08
6.83757e-08
-4.30957e-08
-2.98466e-07
6.11228e-09
2.39912e-07
9.15992e-08
3.03632e-08
2.04051e-10
-1.90026e-08
-1.78251e-08
-5.48725e-08
-5.84689e-08
2.58699e-08
7.29546e-08
-5.83523e-09
-9.32172e-08
-2.17665e-08
1.68358e-07
1.73474e-07
-7.58117e-08
-1.07663e-07
-4.94007e-08
6.22889e-08
1.87016e-08
-1.26342e-08
-1.89159e-08
-4.31247e-09
4.0651e-09
7.85663e-09
1.83143e-08
1.74888e-08
-6.64321e-09
-4.09111e-08
-7.85768e-08
-8.03119e-08
-1.0106e-09
8.75004e-08
6.96568e-08
-5.17486e-08
-1.13258e-07
7.00968e-08
1.98983e-08
-4.90996e-07
-1.79169e-07
3.86629e-07
2.16463e-07
4.4038e-08
2.02046e-08
-2.22717e-08
-3.21491e-08
-6.02705e-08
-6.51317e-08
2.88091e-08
1.01262e-07
1.6788e-08
-1.25375e-07
-9.80549e-08
1.80172e-07
3.56365e-07
6.09956e-09
-2.95002e-07
-2.70282e-07
1.15362e-07
8.89847e-08
-1.67459e-08
-3.40639e-08
-8.96163e-09
5.81426e-09
1.40119e-09
1.76868e-08
3.86526e-08
4.7505e-09
-5.9989e-08
-1.04015e-07
-7.93694e-08
3.20681e-08
1.06344e-07
4.98217e-08
-9.35573e-08
-1.55649e-07
5.24717e-08
2.93767e-08
-6.36183e-07
-3.94516e-07
5.3138e-07
4.10094e-07
4.45788e-08
2.5638e-08
-8.61468e-09
-5.9402e-08
-9.63386e-08
-6.69245e-08
7.01121e-08
1.63114e-07
4.69532e-08
-1.48395e-07
-1.80193e-07
8.02229e-08
4.49651e-07
2.7721e-07
-4.69878e-07
-6.21137e-07
8.46772e-08
2.19416e-07
2.32662e-09
-5.66199e-08
-1.87498e-08
1.50175e-08
9.47227e-09
3.60194e-09
2.90654e-08
1.64022e-08
-6.88458e-08
-1.28855e-07
-4.55667e-08
1.01432e-07
1.28345e-07
1.74545e-08
-1.65362e-07
-1.79599e-07
5.7359e-08
-9.65433e-08
-8.33496e-07
-4.58191e-07
7.23434e-07
5.89856e-07
4.78617e-08
4.51732e-09
-5.36353e-10
-7.50297e-08
-1.28364e-07
-6.53572e-08
1.42958e-07
2.99308e-07
1.2135e-07
-2.205e-07
-3.00795e-07
-6.40402e-08
3.46511e-07
5.11949e-07
-3.95651e-07
-8.11043e-07
-7.39329e-08
3.33168e-07
6.47392e-08
-7.36123e-08
-2.99425e-08
2.85847e-08
2.19421e-08
-6.6113e-09
-1.55872e-08
-1.99016e-08
-6.9576e-08
-1.06286e-07
2.27975e-08
1.53307e-07
1.43053e-07
3.75583e-08
-2.09047e-07
-1.80478e-07
6.06011e-08
-3.14132e-07
-1.06937e-06
-4.00621e-07
9.21888e-07
7.11852e-07
6.38333e-08
-2.38455e-08
-1.14206e-08
-7.36497e-08
-1.32723e-07
-7.06886e-08
1.91732e-07