/*--------------------------------*- C++ -*----------------------------------*\
| =========                 |                                                 |
| \\      /  F ield         | OpenFOAM: The Open Source CFD Toolbox           |
|  \\    /   O peration     | Version:  5.0                                   |
|   \\  /    A nd           | Web:      www.OpenFOAM.org                      |
|    \\/     M anipulation  |                                                 |
\*---------------------------------------------------------------------------*/
FoamFile
{
    version     2.0;
    format      ascii;
    class       volScalarField;
    location    "50.4676134421789371";
    object      Cuw;
}
// * * * * * * * * * * * * * * * * * * * * * * * * * * * * * * * * * * * * * //

dimensions      [0 2 -3 0 0 0 0];

internalField   nonuniform List<scalar> 
60000
(
-4.16933e-09
-1.96569e-09
1.29421e-09
1.92768e-09
1.0382e-10
-8.94343e-10
-3.73675e-10
8.90478e-10
2.44476e-09
1.56309e-09
-1.95948e-09
-2.54709e-09
3.1064e-10
1.4578e-09
7.46055e-10
-2.39892e-10
-2.04058e-09
-5.18517e-09
-5.67095e-09
1.33143e-09
1.65387e-08
2.8796e-08
2.79203e-08
1.98474e-08
1.46778e-08
1.61723e-08
1.32577e-08
-5.42444e-09
-1.7581e-08
-1.29987e-08
-1.30261e-08
-1.25789e-08
-2.54249e-09
1.19495e-08
1.4391e-08
-1.38032e-09
-4.5176e-09
2.68484e-09
1.58621e-09
-2.86169e-09
-6.45097e-08
-3.0191e-08
8.64781e-09
1.43341e-08
-2.16226e-09
-1.46975e-08
-3.2791e-09
2.60699e-08
5.39776e-08
3.12661e-08
-4.60261e-08
-7.94348e-08
-3.55279e-08
-4.97436e-09
-1.54543e-08
-2.60983e-08
-3.17965e-08
-4.14278e-08
5.29337e-09
1.57797e-07
3.16635e-07
3.71503e-07
2.41829e-07
4.11697e-08
-6.58996e-08
-2.97439e-08
9.14302e-08
9.72084e-08
-4.78232e-08
-1.21751e-07
-1.37685e-07
-1.58423e-07
-8.95997e-08
5.58782e-08
1.68519e-07
9.34169e-08
-7.46581e-09
4.25266e-08
4.43022e-08
-3.24605e-08
-1.02312e-07
-1.01269e-07
-2.74281e-08
1.16945e-08
1.52374e-08
-1.0293e-08
-2.14353e-08
2.64968e-08
1.05609e-07
1.07471e-07
-3.45662e-08
-1.55567e-07
-1.17034e-07
-4.04107e-08
-5.0693e-08
-7.07535e-08
-3.5002e-08
-1.51608e-08
-5.20459e-11
1.62282e-07
4.35385e-07
5.88909e-07
3.85706e-07
-7.34487e-08
-3.03952e-07
-2.7079e-07
-5.14304e-08
1.54651e-07
1.3066e-07
-1.35746e-10
-7.55809e-08
-1.47751e-07
-1.69878e-07
-6.05772e-08
1.1208e-07
1.50666e-07
3.07194e-08
4.37295e-08
1.28337e-07
3.30253e-08
-5.11953e-08
-1.17404e-07
-3.11562e-08
1.9521e-08
3.40407e-08
2.64518e-08
-2.95826e-08
-3.80979e-08
6.21937e-08
1.48969e-07
1.58581e-08
-1.75191e-07
-1.28222e-07
-1.11759e-08
-6.25334e-08
-1.30133e-07
-3.15328e-08
7.68197e-08
3.93403e-08
-9.64433e-09
1.64241e-07
4.7562e-07
4.56299e-07
-1.35017e-07
-4.14089e-07
-3.39882e-07
-1.27476e-07
1.04146e-07
1.75187e-07
9.49086e-08
3.16851e-08
-3.01227e-08
-1.153e-07
-1.19494e-07
1.0879e-08
9.16679e-08
-3.12335e-08
-7.70886e-08
1.03728e-07
1.38923e-07
6.50273e-08
-1.38671e-07
-4.91598e-08
5.44665e-08
5.79001e-08
7.70779e-08
1.9416e-08
-9.39801e-08
-6.98277e-08
1.36867e-07
1.52686e-07
-1.63446e-07
-2.05195e-07
1.74899e-08
-5.93527e-08
-2.38307e-07
-5.41035e-08
2.3005e-07
2.53672e-07
-8.18707e-08
-1.7118e-07
3.84249e-07
7.58775e-07
-5.29182e-08
-5.95257e-07
-4.36101e-07
-1.79822e-07
4.2984e-08
1.84619e-07
1.65725e-07
8.01048e-08
3.93207e-08
3.60813e-09
-3.95218e-08
-2.36403e-08
4.79909e-08
-6.02699e-08
-2.18034e-07
-7.9912e-08
1.70458e-07
1.81059e-07
-3.62585e-08
-1.45811e-07
2.11174e-09
7.09737e-08
1.04687e-07
1.18839e-07
-2.48896e-08
-1.88632e-07
-5.44379e-08
2.54141e-07
7.27112e-08
-2.47842e-07
-9.85668e-08
-1.35475e-07
-3.95986e-07
-6.94456e-08
3.90456e-07
5.28897e-07
1.59349e-07
-4.35186e-07
2.7951e-07
1.09903e-06
-1.37563e-08
-8.89974e-07
-4.99333e-07
-1.72997e-07
-3.55362e-08
7.06818e-08
1.4067e-07
1.18115e-07
6.94647e-08
7.67012e-08
1.22442e-07
9.83326e-08
1.47047e-08
-5.71904e-08
-1.82433e-07
-2.33666e-07
2.67856e-09
6.23836e-08
1.20404e-07
-6.68288e-08
-8.48244e-08
8.42704e-09
7.53162e-08
1.57148e-07
1.3548e-07
-1.21281e-07
-3.23579e-07
1.8285e-08
2.99912e-07
2.697e-08
-1.45408e-07
-3.84098e-07
-6.0271e-07
4.57861e-08
6.12152e-07
5.50752e-07
4.77751e-07
-4.65515e-07
-6.7602e-08
1.00163e-06
-4.81828e-08
-8.94374e-07
-3.98405e-07
-1.46295e-07
-6.31006e-08
-9.38123e-09
4.0895e-08
7.81543e-08
6.32393e-08
5.63661e-08
1.52265e-07
2.76759e-07
1.58447e-07
-7.97112e-08
-1.64234e-07
-2.03088e-07
-1.83566e-07
-1.35025e-07
3.17613e-08
5.09722e-08
-5.34801e-09
-2.079e-08
-3.96641e-09
7.17332e-08
1.89957e-07
1.01982e-07
-3.71075e-07
-4.23408e-07
1.93217e-07
3.4373e-07
-7.26108e-08
-7.4397e-07
-6.9427e-07
3.52694e-07
8.07724e-07
3.62977e-07
3.55192e-07
-2.65998e-07
-4.84821e-07
4.73399e-07
1.49498e-07
-4.2001e-07
-2.35723e-07
-1.55244e-07
-9.37012e-08
-3.37453e-08
1.6649e-08
8.0874e-08
8.72233e-08
-2.74337e-09
4.47822e-09
2.33722e-07
3.36208e-07
6.78355e-08
-1.6287e-07
-1.60672e-07
-1.85292e-07
-1.90254e-07
-1.60184e-07
-2.42789e-08
8.81997e-08
5.18985e-08
-1.73277e-08
-2.9578e-08
5.096e-08
1.96752e-07
-1.64373e-07
-6.6348e-07
-4.69883e-08
4.49717e-07
-1.26195e-07
-9.06407e-07
-4.01165e-07
5.95173e-07
7.08247e-07
2.10874e-07
-4.8162e-08
-2.30175e-07
-6.72895e-07
5.61867e-08
4.69784e-07
1.40986e-07
-4.89971e-08
-1.6009e-07
-1.46935e-07
-6.00438e-08
3.44867e-08
1.34141e-07
1.67276e-07
1.67765e-08
-1.5946e-07
-1.36905e-08
2.91628e-07
2.47921e-07
-2.35426e-08
-1.32216e-07
-1.33094e-07
-1.42739e-07
-2.80464e-07
-1.77628e-07
9.23017e-08
9.83577e-08
-3.21721e-08
-6.95103e-08
-3.4302e-08
1.12806e-07
-2.89493e-10
-6.40086e-07
-1.64366e-07
4.84783e-07
-2.27492e-07
-7.22733e-07
2.49106e-08
5.71869e-07
4.29466e-07
1.3541e-07
-1.45924e-07
-2.73094e-07
-5.33123e-07
-8.09131e-08
5.0161e-07
4.73055e-07
1.59095e-07
-1.26993e-07
-1.96875e-07
-8.50178e-08
7.42766e-08
2.29649e-07
2.48734e-07
2.56599e-08
-2.50433e-07
-2.24147e-07
1.00774e-07
2.73749e-07
1.37815e-07
-3.08259e-08
-7.48124e-08
-3.45933e-08
-2.94508e-07
-2.67412e-07
6.63338e-08
1.02647e-07
-3.60731e-08
-9.78554e-08
-9.79093e-08
3.89396e-08
8.79048e-08
-5.00553e-07
-2.92701e-07
5.44173e-07
-7.76363e-08
-5.58778e-07
7.97462e-08
4.66022e-07
2.95506e-07
6.93067e-08
-3.38967e-08
-1.07733e-07
-1.77431e-07
-4.22939e-08
1.60669e-07
3.51789e-07
2.88986e-07
-4.15101e-08
-1.97159e-07
-9.40095e-08
1.17362e-07
3.73309e-07
3.97994e-07
1.80874e-09
-4.14797e-07
-3.8148e-07
-2.62618e-08
1.9221e-07
1.45832e-07
2.83789e-08
-1.32925e-08
1.96074e-08
-1.8715e-07
-2.11708e-07
1.36378e-08
4.15201e-08
1.31828e-08
1.10975e-08
-9.84852e-08
-8.36458e-08
7.94027e-08
-2.88936e-07
-4.58789e-07
4.49984e-07
2.56206e-07
-4.68821e-07
-7.76748e-08
4.4688e-07
2.23872e-07
-2.58152e-08
-5.74751e-09
4.28709e-08
9.53193e-08
-3.29532e-08
-1.9256e-07
5.7927e-08
2.53879e-07
4.05154e-08
-1.32811e-07
-8.55082e-08
1.16419e-07
4.72686e-07
6.53956e-07
1.48413e-07
-6.00316e-07
-6.41971e-07
-1.3132e-07
1.51336e-07
8.69673e-08
-1.7985e-08
-4.2844e-08
-7.73511e-08
-6.48481e-08
-5.59657e-08
-5.62765e-08
-5.38851e-08
3.59951e-08
1.26574e-07
1.11489e-08
-1.27045e-07
4.95098e-09
-1.33597e-07
-5.50378e-07
1.93867e-07
5.24976e-07
-2.14247e-07
-1.23383e-07
3.90314e-07
1.14947e-07
-1.74797e-07
4.64593e-09
1.2157e-07
1.00294e-07
-1.01013e-07
-2.82999e-07
-1.28744e-07
1.16699e-07
1.14199e-07
-3.85387e-08
-7.70449e-08
5.97587e-08
4.04465e-07
8.46012e-07
6.18832e-07
-4.8572e-07
-9.99151e-07
-4.06292e-07
1.14962e-07
1.04648e-07
-2.24255e-08
-1.07427e-07
-1.59592e-07
-7.74435e-08
3.45924e-08
-2.62886e-08
-9.2655e-08
-5.08494e-08
8.19811e-08
1.17164e-07
-5.87699e-08
-6.25548e-08
2.30138e-08
-4.64204e-07
-1.54578e-07
6.18859e-07
1.49962e-07
-8.67388e-08
3.12078e-07
7.28347e-08
-3.77409e-07
-7.976e-08
3.21016e-07
6.16458e-08
-2.14233e-07
-3.17186e-07
-2.56994e-07
7.5191e-08
1.81975e-07
-8.03635e-09
-8.36736e-08
-1.43174e-09
1.85892e-07
6.86564e-07
1.13534e-06
2.71052e-07
-1.09122e-06
-9.28201e-07
-7.83622e-08
1.46367e-07
3.49916e-08
-7.78577e-08
-9.06228e-08
-6.28112e-08
1.88067e-08
5.73019e-09
-7.67587e-08
-1.14371e-07
-2.94949e-08
1.04413e-07
5.32058e-08
-5.52154e-08
3.38898e-08
-2.06695e-07
-3.08425e-07
3.06408e-07
2.4952e-07
7.92092e-08
3.07195e-07
4.1146e-08
-4.40698e-07
-2.31981e-07
5.24841e-07
4.37658e-07
-3.06343e-07
-5.893e-07
-2.92467e-07
1.28044e-07
1.49397e-07
-3.58054e-08
-8.13377e-08
-2.56121e-08
2.53257e-09
2.63129e-07
1.08788e-06
1.23147e-06
-4.29471e-07
-1.40638e-06
-5.51592e-07
1.20535e-07
6.88397e-08
-4.05135e-08
-2.91053e-08
-2.01342e-08
-1.12959e-08
-1.39811e-08
-2.45749e-08
-4.75851e-08
-4.12987e-08
2.26723e-09
2.92939e-08
3.37015e-08
5.82274e-08
-9.5173e-08
-3.26261e-07
-6.45958e-08
2.04188e-07
2.34675e-07
1.43503e-07
-2.34499e-08
-1.89211e-07
-2.25631e-07
1.08064e-07
4.71526e-07
3.63082e-08
-4.62516e-07
-2.37284e-07
7.82182e-08
7.12944e-08
2.69675e-08
4.4844e-08
6.41659e-09
-1.28313e-07
-1.06314e-07
5.78377e-07
1.51767e-06
7.43059e-07
-1.13499e-06
-1.23189e-06
-2.2175e-07
1.05269e-07
7.31612e-09
1.72385e-08
-5.59467e-08
-8.03467e-08
8.89951e-09
9.86971e-08
1.62767e-08
-7.02907e-08
-3.11871e-08
-2.13404e-09
4.31418e-08
1.20199e-07
-4.29388e-08
-3.15099e-07
-1.21299e-07
2.17684e-07
1.20933e-07
-1.02197e-08
3.68733e-08
-3.44253e-08
-9.23353e-08
-1.12312e-07
-5.92149e-08
3.39778e-08
1.54515e-07
1.24096e-07
-1.77725e-07
-1.70216e-07
1.63684e-07
2.69708e-07
8.81071e-08
-1.62832e-07
-3.01615e-07
1.86109e-08
1.00888e-06
1.42912e-06
9.2493e-09
-1.25656e-06
-8.78714e-07
-1.50972e-07
6.39688e-08
6.65666e-08
-6.33241e-08
-1.24282e-07
6.17872e-09
1.63097e-07
4.05111e-08
-1.23961e-07
-4.33801e-08
3.32323e-08
3.07243e-08
1.01609e-07
4.63025e-09
-1.95548e-07
-3.25309e-08
1.09033e-07
-2.8009e-08
6.38811e-08
1.46345e-07
-5.32406e-08
-1.15532e-07
-1.27137e-07
-2.58542e-07
-2.9071e-08
4.17045e-07
2.10473e-07
-2.9917e-07
-1.37813e-07
2.01663e-07
1.40743e-07
2.16205e-08
6.96993e-08
6.41417e-08
-2.16916e-07
-8.84767e-09
9.94563e-07
1.04806e-06
-3.14736e-07
-1.09641e-06
-6.51357e-07
-4.88687e-08
-8.51017e-08
-1.86152e-07
-1.53016e-07
1.34821e-07
2.35062e-07
-4.41508e-08
-2.33385e-07
-2.79919e-08
2.00251e-07
1.04053e-07
3.40601e-09
7.44592e-08
6.93124e-08
-2.06692e-08
-1.08568e-07
-4.30281e-09
2.30243e-07
1.51935e-07
-1.442e-07
-1.72385e-07
-5.66978e-08
-1.08458e-07
-3.90452e-08
1.29029e-07
1.05116e-07
4.2676e-08
-4.29846e-08
-2.54216e-08
7.97091e-08
-9.92545e-08
-1.47169e-09
6.62983e-07
4.35405e-07
-5.999e-07
-3.71624e-07
6.85092e-07
5.56222e-07
-3.73625e-07
-6.41381e-07
-2.8052e-07
-2.13361e-07
-3.55845e-07
-1.73285e-07
2.62643e-07
2.69335e-07
-1.45459e-08
-9.8006e-08
-1.77497e-08
8.30304e-08
5.82913e-09
-1.85196e-07
-4.96356e-08
1.91911e-07
8.75851e-08
-7.31802e-08
9.04183e-09
1.15828e-07
6.15097e-08
-5.43815e-08
-9.54199e-08
-4.26142e-08
2.01643e-08
4.53211e-08
2.90328e-08
-4.76418e-08
-6.51793e-08
1.0415e-07
2.04367e-07
-6.86049e-08
-4.65192e-07
-3.46965e-07
6.15814e-07
1.17723e-06
7.5925e-08
-8.84898e-07
-2.76176e-07
4.00063e-07
1.91893e-07
-1.56838e-07
-1.90797e-07
-5.06625e-08
-4.60522e-08
-6.72875e-09
4.80753e-08
3.99381e-08
4.48038e-08
9.71552e-08
9.12071e-08
-3.40635e-08
-1.56942e-07
-2.00748e-07
-1.1187e-07
6.07772e-08
1.31901e-07
7.46035e-08
-1.07605e-09
-3.79516e-08
-3.09641e-08
6.85419e-09
3.67776e-08
2.363e-08
-3.8147e-09
5.78893e-10
7.6346e-09
-1.26214e-08
-1.04476e-08
3.97998e-08
6.68218e-08
-2.08811e-09
-1.82045e-07
-3.60057e-07
-1.55488e-07
4.99133e-07
5.81398e-07
-1.51738e-07
-3.61319e-07
2.92906e-08
1.23198e-07
-3.73412e-08
-8.20907e-08
-3.84983e-08
4.92723e-08
8.61379e-08
5.44252e-08
2.58351e-09
-8.07377e-09
4.52684e-08
9.97162e-08
2.80671e-08
-9.05801e-08
-3.64222e-08
1.07955e-07
3.36874e-08
-1.62213e-07
-1.02854e-07
1.08397e-07
1.07729e-07
-3.49017e-08
-4.98921e-08
3.29057e-08
6.76603e-08
5.45347e-08
3.71502e-08
1.64304e-09
-4.73563e-08
-5.08246e-08
9.77253e-09
7.36208e-08
5.26016e-08
-7.50654e-08
-1.98639e-07
-1.52058e-07
8.17222e-08
2.31612e-07
7.10782e-08
-1.24389e-07
-9.26216e-08
-5.0747e-09
-3.98094e-08
-9.0285e-08
-6.84824e-09
2.77342e-08
-3.16696e-09
-3.96762e-08
-3.96914e-08
-3.23175e-08
3.05231e-08
1.21037e-07
5.72659e-08
-6.56045e-08
1.94427e-08
1.28876e-07
-4.45949e-08
-2.24148e-07
-2.69433e-08
2.59641e-07
1.94832e-07
-5.1401e-08
-1.28206e-07
-6.24702e-08
-1.04484e-08
-1.04086e-08
-5.83239e-08
-1.08072e-07
-6.24586e-08
9.81343e-08
2.3459e-07
1.86732e-07
-3.90645e-10
-1.38472e-07
-1.65088e-07
-1.16474e-07
-2.79683e-08
2.50358e-08
2.01973e-08
1.76636e-08
3.74347e-08
3.41943e-08
-1.18639e-08
-4.21797e-08
-2.31141e-08
-3.33987e-09
5.02729e-09
-8.71705e-09
-9.50027e-08
-1.90529e-07
-4.30141e-08
3.07421e-07
3.59324e-07
-2.13145e-08
-2.5857e-07
-8.95807e-08
5.1543e-08
-6.97296e-09
-5.75064e-09
7.72744e-08
5.23696e-08
-5.38111e-08
-9.88629e-08
-8.43292e-08
-7.42475e-08
-6.72316e-08
-3.53161e-08
2.51911e-08
8.37256e-08
1.14766e-07
1.22607e-07
8.47676e-08
-1.5462e-08
-1.0198e-07
-7.81667e-08
3.19232e-08
5.45064e-08
-6.63084e-08
-9.66956e-08
2.24909e-08
8.36287e-08
3.03719e-08
-3.27366e-08
-4.45027e-08
-1.93254e-07
-1.35181e-07
3.7577e-08
1.56697e-07
-6.06355e-08
-4.04579e-07
-2.68316e-07
2.72489e-07
4.91536e-07
2.52506e-07
-1.67886e-08
-1.47224e-07
-1.8338e-07
-1.24022e-07
-8.02822e-09
5.66718e-08
4.48485e-08
1.47358e-08
-9.70824e-09
-4.36938e-08
-9.01245e-08
-1.18064e-07
-8.05722e-08
2.59298e-08
1.20726e-07
1.35807e-07
8.94688e-08
-1.28448e-09
-1.14924e-07
-1.42558e-07
4.63583e-09
1.90932e-07
1.48676e-07
-9.55717e-08
-1.79299e-07
1.65664e-08
2.13056e-07
1.83861e-07
1.15136e-09
-1.47622e-07
1.74076e-10
3.7949e-11
-1.23543e-10
-7.65052e-10
-7.98654e-10
-1.68341e-10
8.90526e-10
1.63051e-09
1.66591e-09
1.30921e-09
1.31846e-09
2.77999e-09
4.49592e-09
5.25705e-09
5.90726e-09
5.82401e-09
-1.13828e-09
-1.53632e-08
-1.73222e-08
-1.61669e-09
9.17252e-09
2.00686e-08
3.24023e-08
2.75808e-08
1.27965e-08
-4.58661e-09
-2.01826e-08
-2.31087e-08
-1.84498e-08
-2.21825e-08
-2.71651e-08
-1.48783e-08
1.13581e-08
2.79642e-08
2.32677e-08
6.25913e-09
-5.03481e-09
-2.98145e-09
-1.54953e-10
3.31474e-10
-2.04037e-09
-2.27044e-09
-1.87442e-09
-3.08035e-09
-4.85011e-09
-9.8975e-09
1.07815e-09
2.17787e-08
2.74238e-08
2.37331e-08
1.43259e-08
1.31767e-08
2.11259e-08
3.03137e-08
5.80041e-08
1.02346e-07
6.01046e-08
-1.68616e-07
-3.60721e-07
-1.18609e-07
2.13716e-07
3.16891e-07
4.17105e-07
3.27623e-07
7.77727e-08
-1.17626e-07
-2.11182e-07
-2.23938e-07
-1.97833e-07
-1.92466e-07
-2.17629e-07
-1.71717e-07
-5.83897e-09
1.89197e-07
2.34951e-07
1.33038e-07
-2.59964e-09
-3.47376e-08
-6.37783e-10
5.14211e-09
-3.83426e-09
-1.44092e-08
-4.65439e-09
5.54126e-09
7.74518e-09
-1.76534e-08
-3.01474e-08
9.34234e-09
4.29728e-08
5.00473e-08
2.70996e-08
-1.02278e-08
-2.86114e-08
-3.01479e-08
1.34302e-08
1.41956e-07
2.28188e-07
2.41848e-08
-4.15145e-07
-3.63734e-07
1.34514e-07
2.80358e-07
5.22329e-07
5.65002e-07
5.4623e-08
-3.35072e-07
-3.51912e-07
-2.04196e-07
-1.18117e-07
-1.28292e-07
-1.73466e-07
-1.76471e-07
-8.65062e-08
9.16251e-08
2.27874e-07
1.95173e-07
5.16943e-08
-5.82e-08
-1.82311e-08
2.23749e-08
1.59599e-08
-1.97564e-08
-8.58958e-09
3.16554e-09
8.9087e-09
-9.63256e-09
-3.28383e-08
-7.67197e-09
1.80828e-08
2.73896e-08
3.10174e-08
-5.86467e-09
-5.66331e-08
-9.9702e-08
-7.37629e-08
1.04017e-07
2.63699e-07
1.75413e-07
-1.21008e-07
-4.24381e-08
2.78823e-07
-2.19513e-07
-2.84966e-08
6.03861e-07
1.38955e-07
-4.53919e-07
-4.04193e-07
-1.2538e-07
-4.97885e-09
-5.90171e-08
-1.41423e-07
-1.58175e-07
-9.11969e-08
4.4879e-08
1.81751e-07
1.69682e-07
6.30651e-08
-9.31101e-08
-9.37179e-08
2.14989e-08
5.48032e-08
-2.73968e-09
-9.83354e-09
1.80146e-09
7.94488e-09
-5.3311e-09
-2.47742e-08
-3.78888e-09
4.72292e-09
-1.75484e-08
2.10009e-08
2.34812e-08
-5.46349e-08
-1.71174e-07
-1.71692e-07
1.02475e-07
3.19043e-07
2.20712e-07
-4.73802e-08
1.78707e-07
9.07795e-07
-2.87595e-07
-7.42223e-07
5.9675e-07
4.33129e-07
-5.64004e-07
-5.36978e-07
-1.2945e-07
6.38694e-08
2.72758e-09
-1.08137e-07
-1.31228e-07
-6.65083e-08
5.25875e-08
2.32678e-07
2.62109e-07
9.90266e-08
-1.23308e-07
-2.50216e-07
-6.75378e-08
3.72099e-08
5.9702e-08
-1.55942e-08
-2.8954e-09
1.8584e-08
4.17164e-09
-2.54792e-08
1.21803e-08
2.02798e-08
-3.89955e-08
-1.00859e-08
3.59739e-08
-7.0701e-08
-2.92531e-07
-2.95045e-07
1.44672e-07
4.09665e-07
2.76688e-07
8.39099e-09
2.03632e-09
1.19534e-06
2.00623e-07
-1.13927e-06
4.52641e-07
7.24711e-07
-5.89338e-07
-6.07988e-07
-2.05782e-07
8.69992e-11
2.3587e-08
-3.04078e-08
-4.40852e-08
4.57584e-09
9.11366e-08
2.30057e-07
3.8307e-07
3.04111e-07
5.13936e-09
-3.7834e-07
-3.24643e-07
-2.21714e-07
1.40089e-07
3.02961e-08
-2.40079e-08
2.57139e-08
3.44527e-08
-3.90823e-08
-8.46628e-09
9.5136e-08
-1.84903e-08
-7.82473e-08
-9.49253e-09
-1.16183e-07
-3.9782e-07
-3.08251e-07
2.47242e-07
3.95156e-07
1.98417e-07
7.0115e-08
-1.12912e-07
9.43301e-07
5.95839e-07
-1.2504e-06
9.98821e-08
6.82629e-07
-4.34577e-07
-3.92309e-07
-1.34366e-07
-4.20908e-08
-7.78511e-09
2.56373e-09
-2.6163e-09
-5.17634e-08
-1.99259e-08
2.05224e-07
4.1003e-07
4.44596e-07
2.65096e-07
-2.55612e-07
-6.47132e-07
-7.15758e-07
1.83868e-08
1.54665e-07
-2.62082e-08
4.17189e-09
9.31609e-08
8.99597e-09
-1.6033e-07
6.22637e-08
1.56124e-07
-1.07635e-07
-1.69899e-07
-2.47929e-07
-4.02045e-07
-8.29491e-08
3.33545e-07
2.30514e-07
6.4717e-08
5.81103e-08
-1.07562e-07
4.93796e-07
6.05994e-07
-1.1198e-06
-2.22454e-07
4.98375e-07
-1.27147e-07
-1.55898e-07
-7.19065e-08
-2.66793e-08
3.84087e-08
1.42587e-07
1.95366e-07
-4.22752e-08
-3.96085e-07
-1.85722e-07
3.53422e-07
5.08704e-07
4.32874e-07
1.12124e-07
-6.66966e-07
-9.7788e-07
-4.29122e-07
1.82594e-07
2.393e-08
-3.3848e-08
1.35173e-07
1.67703e-07
-1.76257e-07
-3.66754e-07
2.17401e-07
1.61461e-07
-3.5516e-07
-4.71648e-07
-2.019e-07
2.73692e-07
3.30414e-07
7.86068e-08
-1.10225e-08
5.27589e-09
-1.01165e-07
7.9574e-08
3.36416e-07
-7.98907e-07
-2.67619e-07
4.29814e-07
1.47659e-07
-3.85976e-08
-5.97472e-08
-1.66752e-08
7.73278e-08
2.69127e-07
4.52365e-07
2.44146e-07
-4.49114e-07
-7.30323e-07
-5.7782e-08
4.85149e-07
4.70476e-07
3.91309e-07
-2.10561e-07
-6.08537e-07
-8.48072e-07
-6.03118e-08
8.24232e-08
-3.71135e-08
3.21089e-08
1.37638e-07
9.2336e-08
-4.83632e-07
-3.60366e-07
4.6532e-07
-4.51909e-08
-7.04658e-07
-1.03927e-07
5.81086e-07
3.81174e-07
6.4958e-08
-4.26076e-09
-4.96518e-08
-1.50138e-07
-1.85541e-07
5.32864e-08
-3.6527e-07
-1.63865e-08
4.46946e-07
2.15384e-07
-2.67438e-08
-5.38044e-08
-1.56622e-08
8.45276e-08
3.39235e-07
6.23934e-07
4.57007e-07
-3.13896e-07
-8.95208e-07
-4.87784e-07
2.4881e-07
4.09323e-07
4.18368e-07
3.76964e-07
1.65199e-07
-9.25414e-07
-4.74895e-07
1.25847e-07
2.20417e-08
-1.16634e-07
-6.80309e-08
1.10574e-07
-1.05108e-07
-7.06753e-07
-2.40542e-08
5.46483e-07
-3.76875e-07
-4.50829e-07
3.90388e-07
4.62116e-07
2.05529e-07
6.19064e-08
-7.34913e-08
-2.23013e-07
-3.03339e-07
-7.48742e-08
1.00362e-07
4.05874e-07
3.12183e-07
-7.82884e-09
-5.08143e-08
-3.19478e-08
-2.78119e-08
7.58942e-08
3.55228e-07
7.23649e-07
6.21366e-07
-2.57227e-07
-9.65452e-07
-6.65822e-07
3.82018e-08
2.5956e-07
2.38838e-07
7.02085e-07
6.74204e-07
-6.82556e-07
-7.8577e-07
9.12057e-08
1.10825e-07
-1.59485e-07
-1.60846e-07
2.07409e-08
-4.85216e-09
-4.64567e-07
-5.26353e-07
4.72705e-07
2.47001e-07
-6.72699e-07
-2.10027e-07
5.19437e-07
4.89152e-07
1.75575e-07
-9.68203e-08
-2.18683e-07
-3.30612e-07
-9.05362e-08
4.70675e-07
5.07665e-07
-1.05379e-07
-2.00807e-07
-1.5142e-08
-4.1098e-08
-4.24952e-08
7.58282e-08
3.29764e-07
7.50666e-07
8.76121e-07
-2.15438e-08
-1.0368e-06
-8.47529e-07
-9.34063e-08
1.83579e-07
7.67304e-08
5.59309e-07
4.95705e-07
-3.65329e-07
-6.76693e-07
-2.33222e-08
9.74711e-08
-9.7577e-08
-9.26556e-08
2.22288e-08
-4.46929e-08
-3.8436e-07
-5.7588e-07
2.32121e-07
5.98765e-07
-4.90419e-07
-5.74806e-07
4.66672e-07
6.66462e-07
2.24377e-07
-1.39274e-07
-1.1062e-07
-1.62559e-07
-9.68183e-08
3.20923e-07
1.56119e-07
-2.01704e-07
-1.08988e-07
-2.24837e-08
-6.18068e-08
-3.96905e-08
7.85409e-08
2.0949e-07
5.29796e-07
1.06104e-06
6.53098e-07
-7.27497e-07
-1.07701e-06
-3.24665e-07
1.5239e-07
1.13955e-07
2.39742e-07
5.12364e-08
-2.568e-07
-3.00434e-07
-6.05739e-08
1.39232e-08
-1.41587e-08
-1.00284e-08
2.41431e-08
-2.75011e-08
-3.88138e-07
-6.75121e-07
5.00469e-08
8.32706e-07
-7.08582e-08
-5.70082e-07
2.83085e-07
6.18744e-07
2.15168e-07
-1.90462e-07
-3.40926e-08
1.6346e-07
-6.26419e-08
-5.94889e-08
-3.40364e-08
-8.9092e-08
-8.54206e-08
-6.30583e-08
-6.92824e-08
-5.33311e-08
2.82382e-08
9.75459e-08
1.31937e-07
6.6223e-07
1.22834e-06
2.02395e-07
-9.99137e-07
-6.95239e-07
1.25536e-08
2.26931e-07
1.44343e-07
-7.75941e-08
-2.25709e-07
-1.12525e-07
-2.05404e-08
-1.10474e-08
-5.43532e-09
-3.11352e-09
-1.47868e-09
9.66926e-09
-2.50896e-07
-7.16144e-07
-1.7294e-07
8.29706e-07
2.83414e-07
-3.71566e-07
1.01077e-07
4.63788e-07
1.73497e-07
-2.48434e-07
-5.58614e-08
4.55034e-07
1.95805e-07
-2.03711e-07
-2.1827e-07
-2.22955e-07
-7.78359e-08
1.18528e-07
-3.23908e-08
-2.58534e-07
-1.53889e-07
1.33479e-07
1.00164e-07
9.99783e-09
8.68637e-07
1.02346e-06
-3.8441e-07
-9.1679e-07
-2.90188e-07
1.81865e-07
1.81484e-07
-2.02338e-08
-1.49816e-07
-8.7944e-08
-2.29574e-08
2.10261e-09
-7.70568e-09
-4.1076e-08
-2.91625e-08
7.43618e-09
-1.34126e-07
-5.47255e-07
-2.77072e-07
5.73374e-07
3.74635e-07
-1.83804e-07
-4.96189e-09
2.89367e-07
9.43638e-08
-2.08597e-07
-7.29015e-08
4.11827e-07
3.82456e-07
-2.00587e-07
-4.704e-07
-9.86283e-08
3.45905e-07
9.67314e-08
-3.49184e-07
-2.79384e-07
-2.07596e-08
4.44437e-08
5.04759e-08
-9.87775e-08
2.4729e-07
1.12047e-06
4.08207e-07
-7.98305e-07
-6.48766e-07
-4.47315e-09
1.77762e-07
1.77986e-08
-1.11964e-07
-7.87001e-08
1.50882e-08
8.78364e-08
4.43327e-08
-8.4925e-08
-9.50991e-08
5.44723e-10
-1.09875e-07
-4.47243e-07
-2.91887e-07
3.89283e-07
3.77512e-07
-1.85028e-07
-1.73925e-07
2.34352e-07
2.17717e-07
-5.65905e-08
-3.34995e-08
1.7409e-07
1.13082e-07
-2.27436e-07
-1.39042e-07
4.05545e-07
3.13177e-07
-3.55736e-07
-4.46634e-07
2.86155e-08
2.50557e-07
-1.02827e-08
-2.55224e-07
-1.12071e-07
5.19083e-08
7.25473e-07
9.33035e-07
-2.16771e-07
-8.59013e-07
-3.62669e-07
8.59956e-08
1.22058e-08
-3.30442e-08
-3.886e-08
2.78066e-08
1.14243e-07
7.51639e-08
-7.60283e-08
-1.18225e-07
-1.48379e-09
-7.28981e-08
-3.77914e-07
-2.1942e-07
3.81817e-07
2.69582e-07
-3.75775e-07
-1.96356e-07
4.24126e-07
3.47984e-07
-4.91922e-08
-4.40668e-08
4.6543e-08
-1.47838e-07
-2.10705e-07
2.01732e-07
4.80327e-07
6.95486e-09
-4.843e-07
-2.36278e-07
1.53277e-07
1.90287e-07
1.51471e-07
3.12388e-08
-1.45709e-07
-1.9812e-07
8.06084e-08
7.65102e-07
4.81087e-07
-4.70292e-07
-6.02071e-07
-1.60287e-07
-6.84411e-08
-8.33939e-08
-1.14094e-07
2.8207e-08
1.39629e-07
2.77551e-08
-1.06476e-07
-5.65101e-08
9.26031e-08
1.35971e-08
-2.4508e-07
-6.60818e-08
3.18669e-07
5.70624e-08
-2.84837e-07
1.75815e-08
2.9764e-07
1.46505e-07
-2.51689e-08
-4.82422e-08
-1.03763e-07
-1.97984e-07
-3.89434e-08
2.48999e-07
1.25401e-07
-1.02446e-07
5.33263e-09
5.05656e-08
-1.24099e-08
-3.63971e-09
1.47851e-07
5.19773e-07
3.73581e-07
-3.60514e-07
-6.32479e-07
-2.19026e-09
4.9451e-07
1.51887e-07
-2.66382e-07
-2.24501e-07
-1.12995e-07
-1.83081e-07
-1.80434e-07
-1.75504e-08
5.9051e-08
8.55698e-09
-1.87129e-08
2.62858e-08
8.4043e-08
-3.02662e-08
-2.22618e-07
-8.79592e-08
1.50197e-07
8.74149e-08
-2.91796e-08
-1.52656e-08
4.29109e-08
6.75831e-08
2.76726e-08
-2.46131e-08
-5.06044e-08
-7.56212e-08
-3.6666e-08
4.70754e-08
3.65178e-08
-2.53224e-08
-6.57651e-09
6.90216e-08
-2.72178e-08
-2.21706e-07
6.72784e-08
8.90624e-07
1.10469e-06
-3.12678e-08
-9.89597e-07
-5.63731e-07
2.51137e-07
3.11364e-07
-7.80455e-09
-1.22291e-07
-1.52409e-07
-6.73153e-08
-5.62776e-08
-7.64295e-08
-5.60012e-08
4.26583e-09
4.51994e-08
7.59169e-08
8.45103e-08
-3.89423e-08
-2.45901e-07
-2.34675e-07
-1.63764e-08
1.16327e-07
1.12107e-07
3.79223e-08
-2.82067e-08
6.53044e-09
6.23373e-08
2.13377e-08
-3.36097e-08
-1.26748e-08
2.22349e-08
1.07823e-08
-3.05576e-08
-1.926e-08
5.87531e-08
5.28284e-08
-1.09162e-07
-2.54888e-07
-1.08863e-07
4.63948e-07
1.03052e-06
5.39102e-07
-6.39426e-07
-7.42979e-07
6.68332e-08
3.2361e-07
-2.8031e-08
-2.23897e-07
-1.12666e-07
4.67103e-08
6.51145e-08
-2.0218e-08
-2.98837e-08
2.29056e-08
2.24106e-08
2.38481e-08
6.89154e-08
1.70497e-08
-1.03899e-07
-9.2904e-08
-4.64462e-08
-7.0866e-08
7.01788e-08
2.35405e-07
9.73841e-08
-7.86769e-08
-6.66491e-08
-2.7489e-08
-2.55214e-08
3.33811e-09
2.89562e-08
-2.78668e-09
-4.83373e-08
-3.97914e-08
2.66897e-08
8.13205e-08
2.52886e-08
-9.0389e-08
-8.67766e-08
5.19856e-08
2.31745e-07
2.69904e-07
-6.58388e-08
-3.36116e-07
-1.3596e-07
8.8594e-08
-5.84587e-09
-1.66626e-07
-5.97235e-08
1.57195e-08
2.66944e-08
2.7995e-10
2.59399e-08
3.26924e-08
-4.33564e-08
-3.90996e-08
3.74476e-08
-1.39238e-08
-5.80758e-08
3.0267e-08
5.81943e-09
-9.86569e-08
7.67072e-08
2.70457e-07
6.87806e-08
-1.67072e-07
-1.36446e-07
-4.98298e-08
-1.97061e-08
-1.88218e-08
-8.0015e-08
-1.5174e-07
-7.73751e-08
1.36474e-07
2.77114e-07
2.14843e-07
9.70044e-09
-1.59365e-07
-1.17539e-07
1.98332e-08
2.48709e-08
-3.86938e-08
-6.5273e-08
-2.70576e-08
6.0364e-08
7.97283e-08
-9.97803e-09
-8.92897e-08
-4.37191e-08
3.55441e-09
3.57912e-09
-2.50508e-08
-7.53482e-08
-1.03982e-07
-3.56871e-08
1.29709e-07
2.66597e-07
1.12713e-07
-2.1072e-07
-2.10038e-07
2.87643e-08
1.03904e-07
4.12162e-08
-1.77294e-08
-8.20752e-08
-1.07142e-07
-4.51933e-08
3.42452e-08
4.98227e-08
1.90655e-08
1.1352e-08
3.6657e-08
2.52463e-08
-1.93868e-08
2.7775e-08
1.23157e-07
5.06333e-08
-1.19996e-07
-6.29372e-08
1.37297e-07
5.57866e-08
-1.61275e-07
-1.16229e-07
7.34281e-08
1.41091e-07
5.22103e-08
-6.8354e-08
-9.8827e-08
-2.69823e-07
-1.69259e-07
5.82627e-08
9.84583e-08
-1.67935e-07
-3.30477e-07
-7.32045e-08
2.6052e-07
2.94079e-07
1.41809e-07
-6.24657e-09
-9.57187e-08
-9.46115e-08
-4.81876e-08
-2.22318e-08
-6.85073e-09
1.66159e-08
3.1727e-08
2.04345e-08
-2.30803e-08
-8.80099e-08
-1.15651e-07
-3.95117e-08
8.56528e-08
1.15736e-07
4.9075e-08
2.03131e-08
2.29271e-08
-5.71527e-08
-1.31931e-07
-5.16617e-10
2.26945e-07
1.80288e-07
-1.40878e-07
-2.68517e-07
-2.708e-08
2.50944e-07
2.82275e-07
9.0903e-08
-1.50203e-07
-8.51407e-10
-9.93373e-10
-8.56546e-10
-1.81282e-10
1.69786e-09
2.4259e-09
1.26382e-09
-5.05992e-11
-2.84959e-10
8.69434e-10
3.26243e-09
5.91859e-09
8.43613e-09
1.15636e-08
1.57037e-08
1.83292e-08
1.42846e-08
-1.85132e-09
-2.52623e-08
-2.48151e-08
1.00528e-09
7.58775e-09
6.97652e-09
7.45163e-09
1.62597e-10
-7.56181e-09
-9.54287e-09
-7.46887e-09
-5.34485e-09
-1.31224e-09
6.13978e-09
1.18101e-08
7.62874e-09
-8.19802e-09
-1.50057e-08
-1.19794e-09
4.70398e-09
6.70654e-10
-2.39236e-11
2.45823e-10
-2.67236e-09
-2.63177e-09
3.30119e-09
2.05343e-08
2.86773e-08
9.65236e-09
-1.47565e-08
-2.20803e-08
-1.10029e-08
1.49829e-08
4.95219e-08
7.75642e-08
9.16862e-08
1.05017e-07
1.33887e-07
1.60998e-07
1.25777e-07
-3.58994e-08
-2.93728e-07
-3.63854e-07
-1.34681e-08
1.89557e-07
1.251e-07
1.42045e-07
4.86607e-08
-1.10441e-07
-1.7145e-07
-1.41174e-07
-8.72821e-08
-2.8221e-08
3.18807e-08
7.41467e-08
9.93623e-08
6.02261e-08
-5.40844e-08
-3.53466e-08
3.06111e-08
-7.64489e-09
-2.56352e-08
-6.31696e-09
-3.44721e-09
3.97948e-09
1.82001e-08
4.47617e-08
4.66382e-08
-2.09262e-09
-5.27815e-08
-6.39109e-08
-3.87643e-08
1.19282e-08
6.27805e-08
8.82467e-08
8.65617e-08
8.11447e-08
1.12418e-07
1.75526e-07
2.01522e-07
8.42049e-08
-2.28357e-07
-4.56019e-07
-1.12548e-07
2.74435e-07
1.27604e-07
2.15333e-07
2.07518e-07
-1.47345e-07
-3.15314e-07
-2.42407e-07
-1.49425e-07
-7.46869e-08
1.88403e-08
8.92196e-08
1.20516e-07
1.34527e-07
6.08661e-08
-4.5313e-09
6.79994e-08
2.54739e-08
-6.6946e-08
-3.9555e-08
-2.65206e-08
6.33656e-09
1.82955e-08
3.64835e-08
3.8171e-08
-1.14559e-08
-6.34617e-08
-6.86403e-08
-3.51922e-08
1.30475e-08
4.77846e-08
5.77928e-08
4.58184e-08
2.77311e-08
4.24559e-08
8.40872e-08
1.19445e-07
1.20115e-07
-4.75575e-08
-2.76143e-07
3.65999e-08
4.10989e-07
-2.07332e-07
-1.50547e-07
2.73226e-07
-7.904e-08
-3.37098e-07
-1.93869e-07
-1.06066e-07
-1.18645e-07
-6.08328e-08
5.73996e-08
1.34653e-07
1.53105e-07
7.74609e-08
1.05772e-08
1.31823e-07
1.19509e-07
-9.26634e-08
-1.20215e-07
-1.02789e-07
-4.96866e-09
8.79801e-09
2.66859e-08
4.22017e-08
-1.55872e-09
-6.66296e-08
-8.18467e-08
-4.01135e-08
1.61209e-08
4.08592e-08
4.50568e-08
3.62983e-08
2.05615e-08
1.95916e-08
1.20836e-08
1.21288e-08
9.71753e-08
8.89559e-08
-1.74847e-07
7.69552e-08
8.38491e-07
-2.1045e-07
-7.27201e-07
2.46826e-07
1.22033e-07
-3.6747e-07
-1.72854e-07
-3.81492e-08
-1.32322e-07
-1.44779e-07
-9.99649e-09
1.23184e-07
1.977e-07
1.56367e-07
1.95064e-08
1.31394e-07
2.40115e-07
-5.04084e-08
-2.3145e-07
-2.28995e-07
-5.46742e-08
-5.93096e-09
3.0539e-08
6.18357e-08
1.72519e-08
-7.57873e-08
-1.30636e-07
-9.53229e-08
8.85627e-09
6.31998e-08
5.28617e-08
3.59169e-08
2.28248e-08
1.14155e-08
-3.39199e-08
-5.95597e-08
8.68667e-08
2.26255e-07
-3.03273e-08
-1.35386e-07
8.97225e-07
2.65741e-07
-1.03112e-06
9.95272e-08
4.02192e-07
-4.18343e-07
-3.25365e-07
-6.36448e-08
-1.02443e-07
-1.32654e-07
-1.4982e-08
1.02303e-07
1.65605e-07
2.28264e-07
1.69358e-07
1.58251e-07
3.04265e-07
9.39297e-08
-2.68685e-07
-3.1784e-07
-1.62334e-07
-5.16616e-08
3.61705e-08
8.66764e-08
3.89544e-08
-6.91684e-08
-1.56168e-07
-1.72827e-07
-5.17051e-08
8.13476e-08
8.64734e-08
5.64254e-08
3.67574e-08
-7.61689e-09
-8.35349e-08
-9.10846e-08
1.00848e-07
2.68387e-07
8.10506e-08
-1.51772e-07
6.84295e-07
5.1575e-07
-1.06947e-06
-1.06982e-07
5.25521e-07
-3.10966e-07
-3.66557e-07
-1.38804e-07
-1.11749e-07
-6.81629e-08
6.15027e-08
8.69093e-08
-4.48413e-09
7.5598e-08
2.47003e-07
2.8891e-07
3.63272e-07
2.48315e-07
-1.73826e-07
-2.79338e-07
-2.67869e-07
-1.63103e-07
1.37754e-08
1.19546e-07
7.23984e-08
-4.77546e-08
-1.23524e-07
-1.65616e-07
-1.67246e-07
-5.86867e-08
5.04188e-08
1.02307e-07
1.02924e-07
2.32362e-08
-1.0235e-07
-1.08082e-07
1.38773e-07
2.54725e-07
5.41239e-08
-1.16636e-07
5.30748e-07
4.65701e-07
-8.76536e-07
-1.5374e-07
4.06568e-07
-1.64881e-07
-2.35292e-07
-1.32544e-07
-9.34946e-08
4.97796e-08
2.76307e-07
2.40351e-07
-2.32135e-07
-4.62843e-07
-4.33888e-08
3.63329e-07
4.90891e-07
4.0475e-07
-1.87018e-08
-1.37492e-07
-2.73104e-07
-3.11932e-07
-8.09738e-08
1.50995e-07
1.14903e-07
-2.62019e-08
-9.81547e-08
-9.71551e-08
-1.52728e-07
-2.87514e-07
-2.25368e-07
6.77238e-08
3.07373e-07
2.42194e-07
-3.96132e-08
-1.21904e-07
1.44597e-07
2.02569e-07
-4.41212e-08
-1.71231e-07
3.52585e-07
3.91259e-07
-4.8102e-07
-7.36713e-08
2.46911e-07