/*--------------------------------*- C++ -*----------------------------------*\
| =========                 |                                                 |
| \\      /  F ield         | OpenFOAM: The Open Source CFD Toolbox           |
|  \\    /   O peration     | Version:  5.0                                   |
|   \\  /    A nd           | Web:      www.OpenFOAM.org                      |
|    \\/     M anipulation  |                                                 |
\*---------------------------------------------------------------------------*/
FoamFile
{
    version     2.0;
    format      ascii;
    class       volScalarField;
    location    "50.4676134421789371";
    object      Cvt;
}
// * * * * * * * * * * * * * * * * * * * * * * * * * * * * * * * * * * * * * //

dimensions      [0 1 -2 1 0 0 0];

internalField   nonuniform List<scalar> 
60000
(
-5.11485e-06
-1.41717e-06
4.84049e-06
7.00622e-06
2.85454e-06
9.87599e-08
-1.15296e-06
-3.28193e-06
-3.78495e-06
-3.93151e-06
-2.04382e-06
4.60986e-06
5.67894e-06
-9.34236e-07
-4.42438e-06
5.04491e-06
1.54054e-05
1.61237e-05
9.0505e-06
1.31501e-06
-1.49565e-05
-2.8882e-05
-1.47579e-05
1.59861e-05
1.8009e-05
-2.63305e-05
-6.03866e-05
-4.31962e-05
-2.62414e-06
1.08665e-05
-1.09128e-06
-1.10102e-05
-8.24347e-06
5.0633e-06
1.99919e-05
3.08499e-06
-9.73727e-06
-5.8383e-06
-5.08816e-06
-5.33257e-06
-1.99703e-05
0.000116341
0.000183453
0.000116862
-4.3442e-06
-5.93888e-05
-4.34761e-05
-1.5743e-05
-3.57368e-05
-9.58386e-05
-5.90646e-05
0.000133965
0.00027149
0.000179017
6.9921e-05
7.63542e-05
4.35347e-05
-0.000137376
-0.000334325
-0.000296894
-0.000120121
7.77421e-05
0.000379841
0.000584162
0.000363637
-0.000318172
-0.00102327
-0.00109857
-0.000451997
0.000185198
0.000211123
-7.52434e-05
-0.00020759
-0.000128382
0.000138194
0.000240989
2.81381e-05
-0.000113479
-0.000156556
-0.000121707
-0.000129888
9.85078e-05
0.000225372
0.000156257
2.33152e-05
-5.32223e-05
-5.64622e-05
-7.56701e-06
-4.97389e-07
-8.73118e-05
-0.000131392
3.14986e-05
0.000277026
0.000287538
0.000186056
0.000157465
0.00011584
-0.000131879
-0.00054493
-0.000592608
-0.000136393
0.000371758
0.0006962
0.000715499
0.000455434
-1.99937e-05
-0.000692512
-0.00107378
-0.0006494
0.000160174
0.000438061
0.000146971
-0.000160315
-0.000237544
-3.93929e-05
0.000259542
0.000238199
3.68397e-05
-0.000132279
-0.000218835
-8.20287e-05
2.09356e-05
8.46606e-05
4.74101e-05
3.65281e-06
-7.24302e-06
-1.16011e-05
-4.42137e-06
7.86373e-06
-1.73058e-05
-5.16449e-05
-5.64876e-06
9.57098e-05
9.59986e-05
3.85108e-05
3.78074e-05
9.08374e-05
6.36068e-05
-0.000212864
-0.000323905
3.08567e-05
0.000328927
0.00026107
9.56706e-05
0.00016475
0.000299459
0.000145434
-0.000244096
-0.000303751
8.09867e-05
0.000278642
0.000151748
-4.91641e-06
-8.78947e-05
-6.74971e-05
6.91122e-05
0.000112099
4.48351e-05
-1.72254e-05
-8.14895e-05
-1.40897e-05
1.37513e-06
4.33376e-06
-1.18318e-05
-9.35199e-06
2.09787e-06
6.53042e-06
1.40755e-06
9.62969e-07
-4.18364e-06
-1.2156e-05
8.31938e-06
3.72635e-05
-1.02958e-05
-5.70863e-05
-1.95245e-05
6.09667e-05
8.17716e-05
-0.000150319
-0.000248291
0.000159546
0.000292381
-7.57704e-05
-0.000217399
9.14709e-05
0.000276855
0.000212345
-2.15493e-05
-0.000224197
-2.54963e-05
0.000160551
8.60464e-05
1.28357e-05
-1.96436e-06
-2.53205e-05
-6.09398e-06
1.56428e-05
-3.4498e-06
4.21227e-06
6.4443e-07
1.62406e-05
9.18457e-06
-7.12876e-06
-2.33102e-05
-1.3366e-05
4.08159e-07
5.90505e-06
3.27449e-06
-1.28275e-06
-2.84747e-06
-6.70265e-06
9.90032e-06
3.52762e-05
-1.09485e-05
-8.40351e-05
-5.05943e-05
3.59899e-05
8.96648e-05
-0.00011708
-0.000318349
0.000172116
0.000359039
-0.000182982
-0.00029336
0.00013846
0.000246764
9.53328e-05
2.89315e-05
-0.000110549
-0.000116316
7.45911e-05
8.67208e-05
1.463e-05
5.68809e-06
1.75977e-06
-1.0171e-05
-9.59194e-06
-2.37227e-05
-8.03784e-06
1.78968e-05
1.37364e-05
1.04053e-05
-9.58052e-07
-1.16125e-05
-8.4343e-06
-1.16957e-06
1.47052e-06
1.42048e-06
-6.04343e-07
-6.47826e-07
-4.67896e-06
7.52645e-07
2.13959e-05
2.67323e-06
-4.92891e-05
-4.80297e-05
-4.46323e-06
6.17646e-05
-8.03254e-05
-0.000354678
0.000105554
0.000398978
-0.000152356
-0.000225305
0.000127686
0.000164668
5.20921e-05
6.15741e-06
-5.27025e-07
-7.17131e-05
-3.55175e-05
3.92492e-05
3.35334e-05
9.42245e-06
4.11225e-08
-7.08484e-06
-6.83213e-06
-1.29023e-05
-1.18333e-05
6.23532e-06
4.17129e-06
4.70792e-06
5.12394e-07
-2.65613e-06
-1.91623e-06
-1.38201e-07
-8.55345e-08
-3.13746e-07
-5.08732e-07
-1.16644e-07
-2.55052e-06
-2.35788e-06
1.1115e-05
1.70232e-06
-2.17327e-05
-1.92269e-05
-2.72183e-05
1.33273e-05
-4.9672e-05
-0.000317913
4.78197e-05
0.000359606
-9.4945e-05
-0.000142528
8.1964e-05
7.74374e-05
3.02349e-05
6.32266e-06
7.21511e-06
1.42024e-07
-2.0247e-05
-1.02341e-05
8.81358e-06
1.35417e-05
5.37169e-06
-3.2069e-06
-4.45179e-06
-3.46394e-06
-4.64235e-06
-7.22015e-07
4.4835e-07
9.43046e-07
1.04077e-07
-3.58276e-07
1.1835e-08
9.73842e-08
2.81014e-08
-4.00992e-08
-2.37927e-07
-2.52815e-07
-2.08728e-06
-2.38567e-06
6.80875e-06
1.42266e-06
-9.89913e-06
9.35963e-07
-1.90497e-05
-1.85468e-05
-2.61237e-05
-0.000227441
2.35449e-06
0.000256068
-5.67305e-05
-8.48154e-05
4.77283e-05
4.37578e-05
9.1219e-06
1.58774e-06
-2.85972e-07
2.08784e-06
2.90279e-07
-3.24775e-06
-3.44415e-06
1.10318e-06
4.51694e-06
1.61975e-06
-1.64836e-06
-1.2326e-06
-8.87215e-07
-6.15174e-07
-9.45395e-08
6.20869e-08
-3.715e-08
-1.03135e-07
1.20365e-07
1.81805e-07
1.13463e-08
1.83127e-08
-8.60093e-09
-2.09767e-07
-1.65038e-06
-1.25894e-06
3.56972e-06
2.03572e-07
-4.50064e-06
4.91237e-06
-1.47444e-06
-1.78299e-05
-1.16872e-05
-0.000121515
-2.94075e-05
0.000139329
-2.85137e-05
-4.0606e-05
2.53142e-05
1.99028e-05
4.61513e-06
5.5446e-07
-1.42895e-07
-2.21236e-07
1.73476e-07
1.37514e-07
-3.08014e-07
-9.18598e-07
2.75298e-08
1.01213e-06
1.68668e-07
-4.0819e-07
-1.98427e-07
-1.70952e-07
-1.23888e-08
-3.29795e-08
-1.41461e-08
4.9173e-08
2.45839e-08
5.92587e-09
1.21237e-10
-1.16501e-09
-4.2706e-09
-3.55684e-09
-7.04227e-07
-5.51759e-07
1.27478e-06
-2.24215e-07
-1.87609e-06
1.72862e-06
3.42966e-06
-4.45672e-06
-3.7075e-06
-4.11882e-05
-2.91312e-05
5.22746e-05
-8.55133e-06
-1.49916e-05
1.10191e-05
6.64831e-06
1.133e-06
3.74907e-07
4.95664e-08
-6.42301e-09
-4.26744e-09
2.57013e-09
2.01595e-08
-1.71991e-08
-7.04462e-08
1.61884e-09
6.28626e-08
-6.85905e-09
-2.3865e-08
-3.02236e-09
-1.21379e-09
-1.68626e-08
1.26493e-08
1.44122e-08
3.2691e-09
-1.12515e-10
1.26636e-10
-1.71842e-10
1.89285e-09
5.67398e-09
-4.89377e-07
-9.4159e-08
8.27856e-07
-1.91001e-07
-8.16735e-07
1.85511e-07
1.05865e-06
-3.33593e-08
-5.99023e-07
-7.26889e-06
-1.26222e-05
1.19491e-05
-4.39209e-07
-4.67968e-06
2.45614e-06
2.33182e-06
6.77977e-07
7.24838e-09
4.45362e-11
2.42501e-10
-6.21709e-11
2.57727e-11
2.25091e-11
3.54165e-10
-1.90485e-10
-3.56506e-10
5.67381e-10
-2.33453e-11
-1.32511e-09
5.59481e-10
-4.84522e-12
-6.84002e-10
1.39532e-09
7.97949e-10
6.86731e-11
3.04912e-12
-1.07013e-12
1.80146e-12
-2.2544e-10
1.45006e-08
-3.88985e-08
-6.8544e-08
8.03279e-08
-2.28958e-08
-1.26734e-08
8.8105e-08
3.5095e-08
7.91712e-10
-5.96127e-08
-9.11717e-07
-3.03731e-06
1.81862e-06
6.25878e-07
-1.41095e-06
5.10135e-07
7.35603e-07
2.4225e-08
3.3219e-10
-3.01834e-12
-8.3901e-13
-3.06344e-13
-6.01078e-13
1.71221e-14
-1.27287e-12
2.78898e-13
1.86734e-12
-5.45015e-13
5.86732e-12
-1.16425e-11
1.16966e-10
2.41806e-12
-6.72497e-12
1.60352e-11
1.04841e-11
9.70648e-13
5.54047e-14
-6.68725e-16
1.57781e-14
4.45511e-13
-1.69386e-12
-4.92957e-10
7.16687e-09
9.23218e-09
-1.29e-08
-1.79365e-09
9.19285e-10
7.4411e-10
6.41725e-09
-4.56423e-09
1.58128e-08
-1.87364e-07
-9.87127e-08
-2.65007e-08
-3.61495e-09
7.1518e-09
7.93722e-10
3.43653e-11
5.97711e-13
2.91455e-14
3.78132e-16
1.8832e-15
3.71938e-15
-3.40652e-16
3.91076e-15
3.65156e-17
-4.98884e-15
-4.91601e-15
1.68743e-14
-6.45583e-14
5.18062e-13
2.0677e-14
-2.37796e-14
6.31756e-14
6.38475e-14
6.4143e-15
3.65348e-16
5.49992e-17
-3.84416e-16
2.8006e-15
4.16382e-14
-2.75581e-12
9.4944e-12
-3.45298e-10
-7.15886e-10
-4.29445e-11
1.04485e-11
1.61761e-12
4.99363e-12
3.93743e-10
-4.83203e-11
7.98189e-10
-2.237e-10
-3.68753e-10
2.19157e-10
8.48821e-11
6.87259e-12
3.7735e-13
9.59118e-15
1.27059e-16
-5.49252e-18
-8.17565e-18
-6.01076e-18
5.52955e-18
1.41502e-17
2.85135e-17
2.21393e-17
-3.37538e-17
2.23202e-17
-3.95784e-16
1.4385e-15
6.9739e-17
-7.9923e-17
-5.5663e-16
1.44221e-17
2.96346e-18
-1.37321e-17
2.44227e-18
3.13738e-18
-1.09882e-17
8.78754e-17
-5.8648e-15
1.15519e-13
-1.46385e-12
-1.03082e-11
-1.14682e-12
1.05942e-13
2.64594e-14
8.6422e-14
-1.90536e-12
3.58131e-13
-2.57644e-12
9.75453e-14
-3.12005e-12
-1.80492e-13
4.81643e-13
5.92742e-14
4.25578e-15
1.73231e-16
9.10204e-18
-2.06033e-17
7.99539e-18
1.15999e-17
-1.36158e-17
2.12709e-18
-1.28557e-17
-1.81557e-17
2.59112e-17
2.18554e-17
-5.61908e-19
1.51991e-17
6.62854e-18
2.31586e-18
-1.41796e-17
-3.11451e-18
1.24714e-17
-4.92423e-19
-1.17717e-17
-1.69632e-18
3.05542e-18
3.05724e-18
-1.41363e-17
4.22475e-16
-4.25659e-15
-1.15713e-13
-1.64591e-14
2.12326e-15
4.11812e-16
-2.09075e-16
4.87721e-15
1.96763e-15
7.19221e-15
1.60826e-15
-1.67895e-14
-5.67171e-15
3.62016e-15
6.83025e-16
6.6051e-17
9.3575e-18
9.2267e-18
-7.97188e-18
1.56267e-18
1.23048e-17
4.92525e-18
5.05879e-18
-2.16807e-18
-3.24615e-17
-2.71889e-18
3.10646e-17
-6.04437e-18
-3.29214e-18
-3.75711e-19
2.70865e-20
7.1017e-18
1.39597e-17
5.36884e-18
-1.52533e-17
-7.24222e-18
-9.35465e-19
-4.74003e-18
1.45928e-18
6.66631e-18
1.77776e-17
2.33465e-17
-8.57616e-16
-1.00128e-16
-2.0949e-17
-6.05876e-18
5.32828e-17
-2.04396e-17
-2.24068e-17
-5.25854e-18
2.49154e-17
-8.9782e-17
-1.76382e-17
5.10618e-17
1.81631e-17
-1.26017e-17
1.70829e-18
5.13326e-18
-1.3004e-17
-1.11792e-17
9.22877e-18
2.81954e-18
4.85538e-18
-4.10067e-18
-1.94418e-17
1.4627e-17
1.74546e-17
-2.47027e-18
-1.01769e-18
2.73194e-18
1.24514e-18
3.91395e-18
1.36636e-17
5.7158e-18
-2.21474e-17
-1.16591e-17
-1.17261e-19
1.29517e-17
-6.84286e-18
-1.52081e-17
2.30193e-17
4.901e-18
-6.09686e-18
-2.55283e-17
-1.06774e-17
2.69479e-17
6.69516e-18
-1.11257e-17
-2.77384e-17
-9.89952e-18
1.83248e-17
2.28058e-17
2.36899e-17
-1.23494e-17
-8.07371e-18
4.70078e-18
1.0251e-17
1.75165e-17
-6.08031e-18
-3.95814e-18
-1.22688e-17
-2.46015e-17
-1.90184e-17
2.81188e-17
-9.31069e-18
-2.35724e-17
3.24671e-17
1.7401e-18
-6.85761e-18
4.48431e-18
7.60843e-19
-3.0554e-18
2.07213e-17
2.75059e-17
1.2307e-17
-3.39584e-17
-3.35069e-17
3.91952e-17
-3.94401e-17
-5.00518e-18
3.28202e-17
-1.97904e-17
1.6363e-17
-1.29618e-17
-9.38991e-18
1.05032e-17
-2.13792e-18
-1.53325e-18
2.48105e-18
5.78905e-18
-4.0339e-18
-4.97167e-18
8.71481e-18
-7.69274e-18
-1.32055e-17
4.47773e-18
-7.05111e-18
-1.88986e-17
3.29484e-17
2.37192e-17
-1.13738e-17
1.61543e-17
4.6729e-18
-1.47029e-17
1.14639e-19
-7.46083e-18
-1.19751e-17
8.61313e-18
3.25536e-18
2.18874e-17
7.40045e-18
-2.57831e-17
2.09166e-17
6.68442e-17
-1.38787e-17
-6.79784e-17
-3.65921e-17
-2.15972e-17
5.78217e-17
4.88679e-17
-1.95345e-17
-2.05153e-17
-5.51922e-18
7.84221e-18
6.9072e-18
5.09014e-18
2.71736e-18
-1.38611e-17
-6.41282e-18
1.62238e-17
-2.21555e-17
-5.90529e-19
2.19592e-17
-1.41172e-17
-1.64712e-18
1.05709e-18
-9.09851e-19
-3.07227e-17
5.56354e-18
4.59266e-17
-4.15433e-18
3.34721e-19
3.07056e-17
6.51941e-18
-2.51224e-17
-8.7866e-18
1.29443e-18
-2.05671e-18
-5.55948e-18
-4.12847e-18
5.68394e-18
-9.81194e-18
-6.40499e-18
9.69515e-19
-1.13992e-17
-2.27438e-18
3.76445e-18
6.9878e-17
5.46915e-17
-6.13557e-17
-4.67621e-17
-7.80313e-19
9.10156e-18
-7.26186e-18
-7.98716e-18
-2.74449e-18
-7.65557e-18
2.08093e-18
1.05117e-17
9.32679e-18
-1.57258e-17
-9.89752e-18
1.44078e-17
2.30626e-17
-7.94141e-18
-3.60501e-17
5.17872e-18
1.03245e-17
-3.3535e-18
-1.69137e-18
-3.08377e-18
4.2559e-17
3.93039e-17
-1.68186e-17
-3.562e-17
-1.21927e-17
1.25732e-18
6.76435e-18
-3.12389e-18
2.27516e-17
2.4964e-18
-4.52104e-19
8.51722e-18
-7.01635e-18
-4.16424e-18
6.97764e-18
-6.33817e-18
2.91995e-17
-3.10838e-17
-2.53057e-17
3.50408e-17
-5.30758e-18
-5.64755e-18
-1.3766e-17
1.6566e-18
1.53044e-17
-3.37358e-18
-3.53669e-18
2.57706e-18
2.35629e-19
-2.68357e-19
2.22979e-18
-6.15829e-18
1.58674e-18
2.68488e-17
1.10044e-17
-1.01328e-17
-8.70466e-18
-1.41152e-17
1.76076e-18
-2.82323e-18
1.89824e-18
-3.53613e-19
-2.16786e-18
-1.04044e-17
-3.97979e-18
4.22199e-18
-2.18216e-17
1.36792e-17
6.14788e-18
2.10608e-19
4.62128e-18
1.27133e-17
2.66791e-18
-3.24074e-17
1.04806e-18
1.85365e-17
-1.38088e-17
-6.42302e-19
6.46236e-18
7.40566e-18
-9.83775e-18
-3.91893e-18
8.87435e-18
2.80661e-18
-9.82945e-18
-6.06452e-18
3.91099e-18
-3.20294e-18
-6.11006e-20
-9.06311e-18
9.29706e-18
2.5886e-17
4.86125e-18
1.08288e-17
-2.39123e-17
-2.24908e-17
5.81968e-18
-6.54314e-18
8.86532e-18
1.55975e-19
-2.48452e-17
-1.20257e-17
2.67185e-17
1.09844e-17
-2.26356e-18
6.57312e-18
-1.82662e-18
-6.58323e-18
-5.15475e-19
9.66216e-20
3.80305e-19
-9.8246e-18
5.96422e-18
1.76554e-17
-1.19964e-17
3.16796e-18
6.65389e-17
-2.70019e-18
-6.04179e-17
-5.98246e-18
2.11387e-18
-7.59043e-19
-1.18582e-17
-4.49952e-18
1.78897e-17
3.98564e-19
-1.10177e-17
-6.79915e-18
-2.91444e-17
-2.22889e-17
4.19689e-17
2.48006e-17
-1.25903e-17
1.18095e-17
-9.24814e-18
-1.64896e-17
5.55435e-18
1.43087e-17
-9.33801e-18
3.47442e-18
-4.69243e-18
5.78523e-18
1.11459e-17
-2.38949e-18
8.33289e-18
-1.1477e-17
-3.99434e-18
-6.53085e-20
-4.0797e-06
-5.32485e-06
-2.6144e-07
4.22696e-06
3.98192e-06
5.73002e-06
9.21886e-06
6.14586e-06
-6.30458e-07
-4.37139e-06
-2.05264e-06
1.56449e-06
-6.96274e-07
-4.72768e-06
-2.44526e-06
1.6955e-07
-4.58097e-06
-9.35404e-06
-5.85692e-07
1.90168e-05
2.1694e-05
-3.03593e-06
-2.60805e-05
-2.54434e-05
-2.03737e-05
-2.35427e-05
-1.58904e-05
6.7544e-06
2.67243e-05
2.57996e-05
1.05157e-05
-6.43951e-06
-1.57118e-05
-1.2079e-06
2.76921e-05
1.18559e-05
-1.23406e-05
-7.21847e-06
-3.36072e-06
-2.09209e-06
-1.27027e-05
8.39861e-06
6.63717e-05
9.08411e-05
5.70473e-05
3.54955e-06
-2.349e-05
-3.48394e-05
-2.80515e-05
-2.06025e-06
7.31235e-05
0.000157414
0.00014332
0.000103435
0.000138376
0.000142815
9.216e-06
-0.000233026
-0.000463115
-0.000445865
-8.79305e-05
0.000123681
2.17978e-05
6.78792e-06
-0.000102767
-0.000464381
-0.000585236
-0.000164881
0.000412993
0.000564685
0.000265878
-0.000108057
-0.000368925
-0.000377288
3.91246e-05
0.000296011
3.07995e-06
-0.000145496
-7.15547e-05
-1.56302e-05
-1.40235e-05
3.7424e-05
9.98151e-05
0.000103986
6.79407e-05
9.95454e-06
-6.37828e-05
-0.000113778
-8.43628e-05
-1.40448e-05
7.19099e-05
0.000179543
0.000210099
0.00020877
0.000270359
0.000330743
0.000288002
6.91592e-05
-0.000366046
-0.000753291
-0.000483544
0.000149452
0.000344712
0.000321695
0.000103405
-0.000409614
-0.00070977
-0.000347994
0.000363585
0.000691599
0.000462457
3.15793e-05
-0.000333113
-0.000518338
-0.000298138
0.000157575
0.000173834
-3.29294e-05
-6.02696e-05
-3.09125e-05
7.51198e-07
2.79155e-05
3.36853e-05
4.58415e-06
-2.23688e-06
2.35815e-05
1.56327e-05
-3.2833e-05
-4.14231e-05
3.81979e-07
3.07795e-05
4.03773e-05
3.21646e-05
3.83736e-05
9.48095e-05
0.000188159
0.000269181
0.000295563
0.00011458
-0.000312567
-0.000322556
0.000148138
0.000283145
0.000154836
6.58148e-05
-5.41851e-05
-0.000206071
-0.000136124
0.000163733
0.000305354
0.000218993
8.91709e-05
-4.22908e-05
-0.000171041
-0.000171871
3.60552e-05
0.000124616
3.24424e-05
-1.28983e-05
-1.15536e-05
1.24666e-05
1.18521e-05
-1.34479e-05
-3.72605e-05
-1.83886e-05
2.0207e-05
3.34325e-05
-4.38778e-06
-1.6694e-05
1.54961e-05
1.92723e-05
-9.61318e-06
-4.11558e-05
-3.98065e-05
7.1162e-06
6.09031e-05
6.80957e-05
7.36159e-05
7.49392e-05
-0.000215327
-0.00026724
0.000191676
0.000227752
-3.76674e-05
-1.46579e-05
0.000102772
3.18693e-05
-4.86823e-05
3.65399e-05
8.90767e-05
3.59492e-05
2.29143e-05
2.24128e-05
-2.08541e-05
-7.99993e-05
-2.18878e-05
4.8337e-05
1.51478e-05
9.28979e-07
8.6331e-06
2.07775e-05
1.08679e-05
-2.27397e-05
-4.3094e-05
-1.48125e-05
1.54837e-05
2.71683e-05
3.36005e-06
-1.6383e-05
2.08742e-05
2.81372e-05
-1.34638e-05
-4.9168e-05
-5.27247e-05
-1.069e-05
4.27401e-05
3.44812e-05
-2.76749e-05
2.44708e-05
-0.000132274
-0.000314684
0.000158541
0.000261319
-9.69425e-05
-6.03513e-05
0.000115054
8.55669e-05
-5.2884e-06
-9.41259e-06
3.0401e-05
8.40362e-06
-7.91437e-06
1.04854e-05
1.59092e-05
-3.28537e-05
-3.9009e-05
2.14976e-05
4.68516e-06
-5.54507e-06
1.49585e-05
2.10026e-05
1.20951e-05
-1.59231e-05
-3.09915e-05
-8.17511e-06
1.02547e-05
1.34943e-05
3.23655e-06
-1.79143e-05
7.61582e-06
3.17953e-05
-1.89536e-06
-3.82371e-05
-3.83252e-05
-5.62148e-06
3.65345e-05
4.3206e-05
-3.16569e-05
-2.61549e-05
-5.96685e-05
-0.000317206
3.458e-05
0.000266087
-5.42871e-05
-4.7013e-05
8.03169e-05
5.24264e-05
4.39233e-06
-8.17035e-06
5.27799e-07
6.92743e-06
-3.54252e-07
-3.64071e-07
1.39915e-05
-5.90389e-06
-4.20788e-05
4.36264e-06
1.19292e-05
-9.61248e-06
9.04244e-06
1.28337e-05
9.83731e-06
-8.08904e-06
-1.67962e-05
-3.52454e-06
5.80821e-06
4.92928e-06
1.30511e-06
-1.10649e-05
-4.80388e-06
2.06477e-05
7.98829e-06
-2.45225e-05
-2.55885e-05
1.5475e-07
2.39452e-05
3.64844e-05
-6.4024e-06
-3.05164e-05
-2.64982e-05
-0.000232729
-4.07139e-05
0.000205839
-1.33287e-05
-2.65053e-05
4.37041e-05
2.68121e-05
3.45429e-06
-1.1132e-06
-8.97554e-07
3.88562e-07
5.61465e-07
-2.44548e-06
6.10437e-06
1.04116e-05
-2.10555e-05
-1.02834e-05
1.10817e-05
-2.70993e-06
4.32072e-07
4.37464e-06
5.12579e-06
-3.43967e-06
-7.27656e-06
-1.27026e-06
2.63654e-06
2.17656e-06
7.47629e-07
-5.54266e-06
-5.93042e-06
8.78728e-06
8.16891e-06
-1.17689e-05
-1.4701e-05
7.86972e-08
1.06251e-05
2.28595e-05
5.75722e-06
-1.68858e-05
-1.53477e-05
-0.000139399
-4.36778e-05
0.000128202
-3.85676e-06
-1.44992e-05
2.21293e-05
1.17957e-05
2.12758e-06
1.29032e-07
-4.39274e-08
-5.46218e-08
5.40062e-08
-8.48886e-07
-1.12023e-06
5.991e-06
-2.54159e-06
-8.45651e-06
3.34637e-06
1.42775e-06
-1.06377e-06
8.37003e-07
1.43171e-06
-1.5693e-06
-2.52588e-06
-2.7609e-08
1.27954e-06
6.90375e-07
4.65514e-07
-2.39637e-06
-3.71816e-06
3.21597e-06
4.46094e-06
-4.79265e-06
-5.63225e-06
7.37197e-07
2.3549e-06
8.63274e-06
7.98659e-06
-5.18129e-06
-6.2306e-06
-7.08794e-05
-2.85009e-05
6.47432e-05
-3.28147e-06
-7.20024e-06
9.96199e-06
5.22669e-06
1.26923e-06
2.67893e-07
1.79802e-08
1.3247e-08
-3.07665e-08
1.56255e-08
-6.82109e-07
7.40168e-07
9.20557e-07
-2.54414e-06
-5.44315e-08
1.22511e-06
2.14335e-08
1.71992e-07
-2.4313e-08
-6.94035e-07
-4.2962e-07
2.79283e-07
3.83925e-07
1.22879e-07
4.35196e-07
-7.30797e-07
-1.78837e-06
8.79049e-07
1.68358e-06
-1.22532e-06
-1.42029e-06
3.83181e-07
-3.20935e-08
6.94078e-07
3.53909e-06
8.86226e-07
-1.3611e-07
-2.64068e-05
-1.45253e-05
2.47236e-05
-2.01071e-06
-2.76789e-06
3.61911e-06
2.08665e-06
6.29232e-07
4.25981e-08
3.33837e-09
2.77208e-09
4.22345e-09
7.49304e-09
-4.63077e-08
-7.72619e-08
6.09789e-07
-1.33569e-07
-6.41146e-07
1.2225e-07
2.57066e-07
1.87927e-07
-1.67976e-07
-2.57186e-07
1.11423e-07
1.02499e-07
4.42541e-08
1.60782e-08
2.3237e-08
7.76449e-08
-6.22257e-07
-7.03763e-08
5.76229e-07
-2.46613e-07
-4.2938e-07
2.45781e-07
2.67448e-07
-2.11501e-07
8.02458e-07
4.7102e-07
-1.57112e-07
-6.24457e-06
-4.75064e-06
6.82921e-06
-1.03987e-06
-1.0378e-06
1.36602e-06
8.47567e-07
4.52655e-08
1.00392e-09
5.96633e-12
-4.45865e-11
3.14842e-10
-9.24907e-11
2.54564e-09
-1.2356e-08
6.47349e-10
1.97433e-08
-9.85807e-09
-1.38904e-08
6.72228e-09
1.13094e-08
-5.57449e-08
6.35331e-09
2.8402e-08
9.48209e-09
-6.92904e-10
1.90803e-12
4.02003e-10
5.76087e-09
-4.25489e-09
-2.98953e-08
3.12928e-08
-2.70722e-08
-6.3026e-09
3.93655e-08
3.39421e-09
-1.39505e-08
-1.03143e-08
2.44026e-07
1.44727e-08
-1.60865e-06
-8.21838e-07
1.74455e-06
-7.13971e-07
2.25006e-08
6.02358e-07
6.15857e-08
1.72916e-09
3.07626e-11
6.32674e-13
5.45493e-13
-2.71806e-12
-3.83671e-13
-2.53435e-11
1.04685e-10
-2.94628e-10
-1.77435e-11
-6.21043e-11
2.53247e-09
1.4573e-08
-8.27785e-10
-2.46693e-09
2.32696e-09
1.37112e-09
1.49394e-10
4.07246e-12
-2.88108e-12
8.80187e-12
8.75198e-11
2.38283e-10
7.97411e-12
5.12422e-10
-3.76246e-09
2.63947e-11
4.45299e-10
3.03176e-11
1.10794e-10
-1.08399e-09
3.06094e-10
8.59687e-09
-9.779e-09
-1.28792e-07
2.04033e-08
-4.44929e-08
6.78547e-08
1.19037e-08
6.50637e-10
1.82525e-11
3.62179e-13
4.65695e-15
-3.79717e-15
1.76222e-14
2.79166e-14
1.70614e-13
-6.47691e-13
9.56999e-13
1.12983e-13
-4.91602e-13
9.73589e-12
-8.67621e-12
-4.86171e-12
-2.4336e-11
2.13818e-11
1.17027e-11
1.05867e-12
5.16434e-14
1.35641e-14
-6.40923e-14
1.94049e-13
-4.3673e-13
-2.72497e-13
4.33726e-12
-4.08471e-11
-9.08124e-12
4.79509e-12
7.21622e-13
-5.07876e-13
6.83879e-12
-6.33551e-12
-6.58623e-11
1.14295e-09
-1.44724e-10
-1.17924e-09
-1.05193e-09
1.10089e-09
9.94022e-11
5.78711e-12
2.58219e-13
9.12691e-15
2.53922e-16
1.46355e-17
-6.85648e-17
-3.6444e-16
-7.06e-16
2.79732e-15
-2.4812e-15
3.63785e-16
-6.38744e-15
5.15391e-14
-1.83562e-13
-1.89454e-14
-1.30717e-13
1.86923e-13
6.2467e-14
3.81556e-15
2.27223e-16
-3.79178e-18
-5.05833e-17
-8.73059e-16
3.13763e-16
-8.66519e-16
2.53421e-14
-3.63838e-13
-1.97971e-13
5.07397e-14
8.51916e-15
7.59245e-16
-1.5112e-14
4.71324e-14
2.03299e-13
-3.32712e-12
1.11479e-13
-5.20058e-12
-1.12908e-11
5.49004e-12
8.38507e-13
7.50569e-14
4.60921e-15
1.39529e-16
-3.03911e-18
5.12359e-18
3.17314e-18
2.15473e-19
-1.09072e-17
-4.43278e-17
3.74653e-17
4.58884e-17
-8.67438e-17
5.06591e-16
-1.91703e-15
-5.49098e-17
-7.22096e-16
1.2017e-15
3.3886e-16
3.64489e-17
-1.39639e-17
-6.06556e-18
-1.99789e-18
-2.93297e-19
2.0749e-17
-1.58599e-17
1.97137e-16
-2.58162e-15
-2.82756e-15
4.53168e-16
9.79573e-17
-5.74362e-19
1.39041e-17
-1.17361e-16
-1.5977e-16
3.77473e-15
9.16726e-16
-2.03044e-14
-8.79474e-14
3.81078e-14
9.21457e-15
9.27967e-16
5.59865e-17
5.57996e-18
-1.6366e-17
8.61472e-19
-1.51405e-18
-4.95709e-18
4.52274e-18
3.06268e-18
-3.41623e-17
1.73344e-17
8.55831e-18
-1.27624e-17
2.68401e-18
-2.90823e-18
-4.48349e-19
2.18855e-18
-1.54164e-17
-5.61213e-18
1.34563e-17
9.44704e-18
-1.68507e-18
2.19784e-17
-4.47241e-18
3.40661e-17
-2.68875e-17
-8.04277e-17
-3.89369e-18
1.77471e-17
2.78159e-17
-1.13082e-17
-2.86733e-17
4.24509e-18
7.64449e-19
5.65786e-18
1.90472e-17
-7.56909e-17
-1.77658e-16
3.46313e-16
7.77057e-17
-5.41163e-18
-9.16112e-18
-1.78519e-17
-4.3203e-18
1.76592e-17
-1.22379e-17
-1.08401e-17
4.83211e-18
4.55305e-17
6.62763e-18
-2.38271e-17
1.20743e-17
-4.08318e-18
-2.18106e-17
5.83786e-19
6.15499e-18
8.89328e-18
-2.28227e-17
-1.76417e-17
2.08837e-17
1.78504e-18
-3.50839e-18
-5.49993e-18
-8.28136e-18
6.46327e-19
-1.00137e-17
1.13034e-17
2.55629e-17
2.45935e-18
-1.96132e-17
-8.61502e-18
1.35234e-18
7.53399e-18
2.71092e-18
-2.26762e-18
1.99134e-18
6.16776e-18
-4.45277e-18
-6.38875e-18
6.13668e-18
9.89834e-18
-1.62833e-18
-3.27177e-18
-3.45711e-17
2.02031e-18
1.40482e-17
-2.20989e-17
2.36351e-17
3.42869e-17
-1.19592e-17
-2.50467e-17
1.48441e-18
4.81145e-18
-6.90059e-18
-1.21974e-17
1.0055e-17
2.40813e-17
6.38677e-18
6.76163e-18
-1.02263e-17
-2.50908e-17
7.5519e-18
7.5566e-21
-5.46109e-17
-7.53963e-19
4.31455e-17
-1.26321e-18
5.66017e-18
1.22094e-17
-2.9593e-18
-8.15789e-18
-2.10188e-18
1.61354e-18
2.40876e-18
-3.73362e-18
-2.47298e-18
2.85808e-18
1.66238e-17
-1.44761e-17
-1.18025e-17
3.73655e-17
-5.72251e-18
5.24194e-18
-1.69064e-17
-3.00532e-17
4.18487e-17
3.66347e-17
-9.86162e-17
-2.37969e-17
7.0606e-17
1.99298e-18
2.44526e-20
1.04904e-18
-1.07627e-17
-9.14478e-18
1.51786e-17
1.49096e-17
-3.36838e-17
5.24741e-17
6.5967e-17
-6.00821e-17
-7.64662e-17
-1.1189e-17
1.50204e-17
-1.10312e-17
2.40859e-17
2.07122e-17
2.05832e-17
2.63093e-17
-1.27904e-17
-2.80529e-17
-1.50162e-17
4.06265e-18
1.07936e-17
-1.04765e-17
1.31459e-18
1.39639e-17
-1.46036e-18
-1.65926e-17
-1.14478e-17
2.95048e-17
5.43707e-18
5.97911e-18
-2.18214e-18
-2.22096e-17
1.05534e-17
-3.56436e-17
-4.75713e-17
3.85921e-17
4.43922e-17
-1.47099e-17
-6.5638e-18
1.14348e-17
-1.21619e-17
1.31131e-17
-2.26352e-18
-6.67554e-18
-6.17113e-18
1.84953e-17
-1.73915e-17
-1.80767e-17
1.49375e-17
-3.80655e-17
1.93632e-17
3.14439e-17
-2.22595e-18
6.82543e-18
-7.56168e-19
3.37812e-18
-4.08213e-18
-1.46693e-17
1.35913e-18
8.98217e-19
-9.99395e-18
1.1746e-17
5.42146e-18
-1.6423e-17
2.17652e-17
-2.91407e-17
-5.18105e-17
-2.63112e-18
4.04993e-17
1.62509e-17
-7.63543e-18
4.11174e-17
1.42671e-17
2.3923e-17
9.72853e-18
-4.47123e-17
-2.58627e-17
2.92543e-17
-2.88705e-17
-3.15369e-17
3.99787e-17
1.01836e-17
-6.99216e-18
6.54472e-19
1.60994e-17
1.0119e-18
1.07866e-17
7.52533e-18
-2.3439e-17
-9.08983e-18
-2.32939e-17
1.66125e-17
8.32823e-18
-1.6538e-17
1.7668e-17
-4.66968e-19
-7.97222e-18
-6.39208e-20
6.26396e-18
3.95563e-18
8.98618e-20
-8.18765e-18
-1.48125e-18
-1.34549e-17
-7.70535e-18
2.66308e-17
1.37951e-17
-4.31327e-17
-2.18255e-17
4.47971e-17
4.28866e-18
-7.17128e-18
4.99629e-17
9.51476e-18
-3.86967e-17
-1.48004e-17
-9.65231e-19
-8.88784e-18
7.49853e-18
2.76515e-18
-5.51695e-18
-2.00025e-17
-1.17109e-17
-6.72911e-18
1.44515e-17
8.20378e-18
-3.41337e-18
1.72187e-18
-1.74625e-17
6.73093e-18
3.45033e-17
-1.81883e-17
5.42762e-18
1.27157e-17
-2.68043e-17
-3.0719e-18
6.20449e-18
6.39423e-18
-1.17796e-20
1.65002e-18
-6.81655e-18
-2.71107e-18
3.25735e-18
-5.49854e-18
7.76165e-19
-8.80659e-19
9.46674e-18
9.79687e-18
-5.90509e-18
-4.42659e-18
1.84624e-19
-9.5652e-18
4.61977e-17
-6.65146e-18
-6.25457e-17
1.51963e-17
2.31199e-17
5.52146e-18
2.86459e-18
1.21911e-17
-6.05895e-18
2.63021e-18
-7.34443e-18
-2.1612e-18
-1.00017e-17
2.30196e-18
1.15487e-17
-7.67198e-18
-2.2299e-17
-1.33029e-17
1.81014e-17
3.87595e-17
5.28338e-18
-2.06204e-17
-4.21763e-18
4.46848e-19
3.22905e-18
-1.28325e-18
-5.25128e-18
-1.26517e-18
-1.4298e-17
1.16184e-17
1.83949e-17
-1.02216e-17
-5.19258e-19
1.49847e-18
1.47626e-18
-3.16572e-19
1.45077e-17
2.57358e-18
-1.49567e-17
-2.32105e-17
-4.78992e-19
3.94695e-17
1.44188e-18
-1.70651e-17
9.83542e-18
5.84041e-18
-2.24858e-17
-6.2816e-18
1.97215e-17
-1.44548e-05
-3.92843e-06
7.09458e-06
7.11252e-06
1.37042e-06
-2.62623e-06
-4.78851e-06
-3.00103e-06
3.66335e-06
6.20721e-06
1.53469e-06
-4.53949e-06
-6.66813e-06
-1.23235e-06
2.15882e-06
-1.94018e-06
-5.0168e-06
-6.41868e-06
-1.40651e-05
-1.86337e-05
3.18098e-06
1.17975e-05
-9.34619e-06
-1.9752e-05
-1.30272e-05
-1.18185e-07
1.28996e-05
2.49748e-05
2.8898e-05
2.19865e-05
4.71644e-06
-1.43206e-05
-1.92044e-05
-5.72923e-06
7.2064e-06
-5.2602e-07
-3.53257e-06
4.49589e-06
1.71271e-06
-1.10341e-05
-9.11871e-05
6.65553e-05
0.00014693
8.47629e-05
-1.67225e-06
-4.70914e-05
-7.48106e-05
-6.17282e-05
2.90987e-05
0.000105984
9.00374e-05
2.33451e-05
-1.1799e-05
4.35979e-05
9.51398e-05
4.64332e-05
-3.82128e-06
-3.12853e-05
-0.000294238
-0.000778808
-0.000620404
3.16065e-05
9.84982e-05
-0.000130085
-0.000151111
-4.84885e-05
0.00015159
0.000388319
0.000464976
0.000295326
-1.24336e-05
-0.000298369
-0.000401515
-0.000247335
6.83617e-05
0.000198007
5.11408e-05
-5.58663e-05
-0.000110973
-0.000149118
-6.74478e-05
0.000123124
0.000176495
7.57414e-05
-9.99109e-06
-4.47458e-05
-6.22724e-05
-6.40551e-05
-1.32961e-05
5.76524e-05
9.21559e-05
9.02031e-05
8.63101e-05
0.000127912
0.000169143
0.000144288
0.000126567
0.00018474
1.92875e-05
-0.000699509
-0.00102418
-0.000245301
0.000289787
0.000117323
-7.37394e-05
-8.62619e-05
7.8227e-05
0.000358234
0.000489775
0.000346285
4.11854e-05
-0.000285881
-0.000472105
-0.000396292
-9.58611e-05
0.000198035
0.000207418
3.6565e-05
-0.000117965
-0.000161819
-1.79151e-06
0.000100141
7.85977e-05
3.62692e-06
-1.65748e-05
-1.40862e-05
-1.29261e-05
-1.43911e-05
-7.50279e-06
1.04514e-05
2.54956e-05
2.42504e-05
1.73966e-05
3.15043e-05
6.56263e-05
0.000103954
0.000138216
0.000202752
0.000242768
-6.33763e-05
-0.000463274
-0.000164804
0.000238356
0.00015582
1.40445e-05
-1.87553e-05
3.61162e-05
0.000144535
0.000160932
9.10286e-05
3.59657e-05
-4.3726e-05
-0.000146746
-0.000159043
-5.19262e-05
8.61248e-05
0.000109918
4.7688e-05
-3.09054e-05
-6.66036e-05
2.42809e-05
5.29046e-05
-1.55058e-06
-3.64194e-05
-1.37062e-05
2.78519e-06
5.21448e-06
4.06062e-06
3.09435e-06
3.14915e-06
3.69416e-08
-1.69786e-05
-3.09705e-05
-2.25256e-05
7.55904e-06
4.44158e-05
5.46272e-05
4.80784e-05
9.98427e-05
1.95659e-05
-0.000248556
-7.38958e-05
0.000201763
9.67579e-05
3.82357e-06
2.29469e-06
3.93265e-06
1.81433e-05
-4.48883e-06
-2.8332e-05
1.68532e-05
4.83862e-05
-3.06901e-06
-4.54906e-05
-2.05877e-05
2.46575e-05
2.0363e-05
7.89036e-06
-2.28042e-07
-2.11225e-05
2.54677e-05
3.85709e-05
-2.39111e-05
-4.52526e-05
-8.87442e-06
1.07269e-05
1.10421e-05
7.87221e-06
8.07772e-06
8.49694e-06
5.19739e-07
-2.68846e-05
-4.8639e-05
-3.70792e-05
-1.43176e-06
3.43094e-05
4.44018e-05
6.76146e-06
-8.73688e-06
1.85008e-05
-0.00016797
-8.48447e-05
0.000198276
8.92278e-05
-2.59104e-05
2.925e-06
4.71375e-06
-1.18337e-05
-3.51496e-05
-4.02599e-05
-2.7375e-06
3.5087e-05
2.10362e-05
-1.19812e-05
-8.76891e-06
1.83916e-05
3.59701e-06
-1.49536e-05
5.16839e-06
-9.06667e-06
1.62426e-05
3.01842e-05
-2.32424e-05
-3.8598e-05
-5.85994e-06
1.20248e-05
1.13278e-05
6.13078e-06
6.49538e-06
8.19407e-06
2.63397e-06
-1.83173e-05
-3.84419e-05
-2.72806e-05
5.27116e-06
2.38917e-05
2.69118e-05
2.0111e-05
-2.03922e-05
-8.08922e-06
-8.36853e-05
-0.000121272
0.000111794
9.75682e-05
-2.59288e-05
-7.52229e-06
5.15175e-06
-8.06511e-06
-1.86811e-05
-1.42909e-05
-3.07253e-06
4.48607e-06
3.4054e-06
-6.92351e-06
-1.19571e-05
7.63362e-06
1.36307e-05
-9.70521e-06
1.51628e-06
-3.05988e-06
7.42612e-06
1.90696e-05
-1.49286e-05
-2.505e-05
-3.95694e-06
8.36505e-06
8.53973e-06
4.68725e-06
2.73055e-06
3.82777e-06
1.59296e-06
-6.86403e-06
-1.60075e-05
-1.09765e-05
3.91846e-06
8.57975e-06
6.11964e-06
1.17602e-05
2.34586e-06
-7.6362e-06
-2.81031e-05
-8.48122e-05
2.81836e-05
6.61629e-05
-9.91511e-06
-9.26444e-06
2.83538e-06
-2.93974e-06
-6.36364e-06
-3.22013e-06
-5.09145e-07
-3.81834e-07
-2.591e-07
-9.02258e-07
-7.3581e-06
-4.79816e-06
9.32757e-06
1.93779e-06
1.22485e-06
-1.0294e-06
2.94658e-06
9.37064e-06
-7.109e-06
-1.3616e-05
-2.58056e-06
4.71041e-06
5.05865e-06
2.65199e-06
2.25749e-07
7.2845e-08
2.90226e-07
-1.27986e-06
-2.32272e-06
-6.50082e-07
4.78403e-07
-7.68178e-07
-1.04315e-06
3.43921e-06
2.31754e-06
-1.03378e-06
-8.83299e-06
-3.69868e-05
4.57417e-06
3.18171e-05
-4.17103e-06
-6.11985e-06
1.49433e-06
9.95058e-08
-1.20515e-06
-1.65933e-07
2.99052e-07
4.79391e-08
7.52889e-09