/*--------------------------------*- C++ -*----------------------------------*\
| =========                 |                                                 |
| \\      /  F ield         | OpenFOAM: The Open Source CFD Toolbox           |
|  \\    /   O peration     | Version:  5.0                                   |
|   \\  /    A nd           | Web:      www.OpenFOAM.org                      |
|    \\/     M anipulation  |                                                 |
\*---------------------------------------------------------------------------*/
FoamFile
{
    version     2.0;
    format      ascii;
    class       volScalarField;
    location    "50.4676134421789371";
    object      Cvv;
}
// * * * * * * * * * * * * * * * * * * * * * * * * * * * * * * * * * * * * * //

dimensions      [0 2 -3 0 0 0 0];

internalField   nonuniform List<scalar> 
60000
(
9.98154e-12
4.55296e-12
-4.04246e-12
-3.04617e-12
1.97703e-13
-5.34974e-14
-2.39382e-13
-8.17472e-13
-7.22854e-13
7.9011e-13
1.63855e-12
2.14058e-13
-9.62062e-13
1.74972e-12
4.06577e-12
-1.13087e-12
2.52545e-12
1.37008e-11
7.61737e-12
-3.24488e-12
-1.81419e-11
-1.49377e-11
-2.23828e-12
1.35004e-11
3.52861e-11
-4.02012e-11
-6.51571e-11
-7.5248e-12
-6.18856e-12
-7.5235e-12
5.74082e-12
1.42754e-11
7.1219e-12
-1.08226e-11
-1.2651e-11
-7.23422e-12
-1.5546e-12
2.51296e-12
3.45513e-12
7.84885e-12
1.1854e-10
-4.20147e-10
-3.67927e-10
6.67468e-11
-4.0724e-12
-1.10225e-10
-2.6368e-11
-1.29489e-12
3.39253e-11
1.99783e-10
2.42039e-10
-1.89383e-10
-2.84825e-10
9.58199e-11
1.97762e-10
2.27002e-10
4.40086e-11
-6.22733e-10
-3.44075e-10
3.70939e-10
4.23682e-10
-4.20807e-11
2.87941e-10
2.99562e-09
2.6226e-09
-4.8431e-09
-8.42072e-09
-3.55069e-09
-2.1316e-10
-3.55786e-10
-1.72304e-10
1.76428e-10
4.09478e-10
3.54189e-10
-3.2501e-10
-3.33849e-10
-1.1757e-10
6.1092e-11
4.02007e-10
5.22583e-10
2.21672e-09
-1.35306e-09
-2.27468e-09
3.92951e-10
3.97525e-10
-6.47285e-10
-3.4376e-10
-2.56005e-11
-9.28649e-12
5.65516e-10
1.48341e-09
1.512e-10
-1.84337e-09
-1.80516e-10
2.58779e-09
3.56736e-09
1.41319e-09
-5.40609e-09
-2.28781e-09
8.51265e-09
4.68546e-09
-6.80511e-09
-2.03586e-09
1.79597e-08
1.28628e-08
-2.37558e-08
-3.92458e-08
-1.79984e-08
-1.27889e-09
-1.79923e-09
-1.71739e-09
1.17314e-10
4.00255e-10
1.43374e-09
3.50002e-10
-1.31643e-09
3.11052e-10
5.14772e-10
-4.44659e-13
2.11302e-09
7.51878e-09
-2.88373e-09
-7.58252e-09
3.67863e-10
1.72837e-09
-1.15515e-09
-1.1776e-09
-1.82245e-10
-2.09916e-10
8.0611e-10
4.03954e-09
2.2185e-09
-5.30037e-09
-2.87072e-09
7.5585e-09
1.07861e-08
3.92655e-09
-1.19635e-08
-4.91836e-10
3.50117e-08
1.2284e-08
-3.13742e-08
-1.05307e-08
4.97162e-08
2.05307e-08
-7.06836e-08
-8.25491e-08
-1.95008e-08
6.3202e-09
-1.13233e-08
-1.37511e-08
-2.90773e-09
4.09835e-10
2.51131e-09
2.29266e-09
-3.45047e-09
1.47735e-10
3.67893e-09
-1.35241e-09
2.62752e-09
1.80198e-08
-2.36995e-10
-2.04783e-08
-4.16492e-09
3.78319e-09
-8.3867e-10
-1.95193e-09
-5.76833e-10
-3.66185e-11
4.31959e-10
9.26944e-09
1.04322e-08
-1.21156e-08
-1.48889e-08
1.4523e-08
2.48328e-08
3.87503e-09
-2.42987e-08
3.73521e-09
9.58451e-08
3.94443e-08
-8.30397e-08
-3.69669e-08
1.10837e-07
3.9166e-08
-1.54063e-07
-1.6364e-07
-2.57778e-08
3.11739e-08
-2.28502e-08
-4.49849e-08
-1.70219e-08
-1.22907e-09
2.8253e-09
6.35721e-09
-3.42642e-09
-3.2048e-09
9.91908e-09
-7.13746e-11
-1.92495e-09
1.74859e-08
1.89993e-08
-3.10153e-08
-1.84557e-08
5.15766e-09
3.92402e-11
-2.07804e-09
-1.05904e-09
7.88337e-10
-6.91367e-11
1.60462e-08
3.19287e-08
-9.99001e-09
-4.82432e-08
1.20667e-08
5.70241e-08
2.86852e-09
-5.4081e-08
-5.69679e-09
1.80434e-07
1.25051e-07
-1.55989e-07
-1.05732e-07
2.02043e-07
9.44261e-08
-2.53023e-07
-2.78579e-07
-6.57998e-08
6.15811e-08
5.08302e-09
-7.14325e-08
-5.09267e-08
-1.19707e-08
5.62188e-10
7.27327e-09
1.4697e-09
-5.35361e-09
1.62671e-08
1.28987e-08
-1.39435e-08
-7.7356e-09
2.97652e-08
-1.40295e-08
-3.29875e-08
1.02458e-09
1.81832e-09
-1.2754e-09
-6.06353e-10
1.30146e-09
1.06338e-09
2.07156e-08
6.52483e-08
1.85662e-08
-8.66562e-08
-1.55721e-08
1.06849e-07
6.57507e-09
-1.16318e-07
-2.65307e-08
2.55342e-07
2.35868e-07
-2.3403e-07
-1.9743e-07
3.0067e-07
1.75593e-07
-3.34446e-07
-3.76638e-07
-1.12792e-07
5.44063e-08
4.29974e-08
-3.71957e-08
-6.24875e-08
-3.58374e-08
-1.04861e-08
1.6579e-09
1.61822e-09
-4.84624e-09
1.3201e-08
2.88753e-08
-8.86431e-09
-2.30502e-08
-2.35294e-10
3.47641e-09
-1.79477e-08
-2.17787e-09
5.7533e-10
-7.73086e-10
5.57533e-10
1.51385e-09
2.6492e-09
2.6175e-08
1.11702e-07
6.36335e-08
-1.20101e-07
-4.34464e-08
1.65744e-07
1.75178e-08
-2.14127e-07
-6.50289e-08
3.30552e-07
3.19095e-07
-3.16851e-07
-2.90571e-07
4.00617e-07
2.73806e-07
-4.00225e-07
-4.57816e-07
-1.47365e-07
2.95538e-08
3.29853e-08
-2.46492e-09
-1.22625e-08
-1.11842e-08
-1.52481e-08
-1.61492e-08
-1.26296e-08
-8.06106e-09
5.7459e-09
2.81511e-08
1.24445e-08
-9.31877e-09
-2.36774e-08
-6.86205e-09
3.43543e-09
1.65417e-09
-6.28678e-09
-4.01006e-09
-5.16978e-11
1.281e-10
3.44257e-09
3.73114e-08
1.58912e-07
9.31738e-08
-1.55565e-07
-4.03072e-08
2.46881e-07
2.92383e-08
-3.43995e-07
-1.22431e-07
4.48806e-07
3.65369e-07
-4.44574e-07
-3.80657e-07
5.29786e-07
3.60633e-07
-4.74392e-07
-5.12484e-07
-1.51636e-07
1.66035e-08
1.07297e-08
-8.06724e-09
6.99667e-09
3.5762e-08
3.79831e-08
-4.93688e-09
-4.01347e-08
-3.02212e-08
-4.79681e-09
1.54534e-08
2.3479e-08
7.86079e-09
-1.45989e-08
-1.0128e-08
1.88354e-08
3.20623e-09
-2.43131e-08
-1.48048e-08
-5.57521e-10
-7.48142e-11
9.32276e-09
5.48127e-08
1.63584e-07
7.59987e-08
-1.671e-07
1.90296e-08
3.40307e-07
1.3888e-08
-4.7146e-07
-1.80413e-07
6.22948e-07
4.61355e-07
-6.34121e-07
-4.89803e-07
6.54155e-07
3.68525e-07
-5.47109e-07
-5.12439e-07
-1.22332e-07
1.32561e-08
-2.77187e-09
-1.20236e-08
7.66427e-10
2.97452e-08
6.76554e-08
5.02617e-08
-2.20551e-08
-5.42741e-08
-2.85387e-08
-7.36639e-10
1.66139e-08
7.77991e-09
1.06086e-08
2.30284e-08
3.78368e-08
-1.17481e-08
-5.36045e-08
-2.85168e-08
-1.91286e-09
-5.36251e-10
2.1958e-08
9.14233e-08
1.44515e-07
5.1221e-09
-1.57206e-07
1.27457e-07
3.86061e-07
-4.38348e-08
-5.33134e-07
-2.29034e-07
7.24036e-07
6.77161e-07
-7.39145e-07
-6.48745e-07
6.8206e-07
3.14603e-07
-5.92416e-07
-4.63206e-07
-8.16929e-08
9.72212e-09
-8.83511e-09
-8.29671e-09
-1.1066e-09
1.40625e-08
5.51658e-08
6.75874e-08
1.28312e-08
-4.00242e-08
-3.9596e-08
-1.72161e-08
-2.44065e-09
-8.69667e-09
2.02434e-08
8.1422e-08
6.09489e-08
-4.70519e-08
-9.04938e-08
-4.08286e-08
-3.83549e-09
7.13818e-10
3.08518e-08
1.27808e-07
1.52435e-07
-6.31965e-08
-1.56716e-07
1.80062e-07
3.55336e-07
-5.55423e-08
-4.78498e-07
-2.89314e-07
5.79353e-07
8.73388e-07
-5.63006e-07
-8.09711e-07
5.23522e-07
2.75579e-07
-5.48218e-07
-3.82053e-07
-4.84166e-08
3.76891e-09
-8.04715e-09
1.59211e-10
-4.69598e-09
-8.43143e-11
4.63236e-08
6.77685e-08
1.41888e-08
-3.41577e-08
-2.96235e-08
-8.14371e-09
-3.12665e-09
-4.20508e-09
-1.80747e-08
9.97865e-08
9.51215e-08
-5.54184e-08
-1.1727e-07
-6.34279e-08
-1.09068e-08
2.89485e-09
4.26421e-08
1.54e-07
1.72921e-07
-8.06183e-08
-1.88045e-07
1.33321e-07
3.10746e-07
2.81802e-08
-3.18615e-07
-3.41547e-07
2.50263e-07
8.58984e-07
-1.83866e-07
-8.2573e-07
2.46485e-07
2.23964e-07
-4.16259e-07
-2.75067e-07
-2.75254e-08
1.99987e-11
3.29523e-09
1.69671e-08
-1.1728e-08
-2.44267e-08
3.53847e-08
7.18556e-08
1.01032e-08
-4.56255e-08
-2.94299e-08
8.66069e-09
3.50818e-08
2.92292e-08
-4.89504e-08
4.05333e-08
9.44996e-08
-1.64416e-08
-9.02161e-08
-6.84077e-08
-2.37003e-08
-4.69891e-09
4.15538e-08
2.17047e-07
2.67736e-07
-6.42473e-08
-2.7621e-07
3.11427e-08
2.70646e-07
1.34772e-07
-1.44707e-07
-3.3774e-07
-5.54283e-08
5.16346e-07
7.00493e-08
-5.5177e-07
-3.54461e-09
1.24674e-07
-1.93675e-07
-1.42127e-07
-1.91611e-08
1.55769e-09
2.27733e-08
4.10097e-08
-1.37732e-08
-5.21846e-08
2.03795e-08
6.73592e-08
1.14621e-09
-5.07672e-08
-2.68439e-08
8.07837e-09
5.45286e-08
4.11398e-08
-3.94508e-08
-8.5979e-09
4.93059e-08
7.75985e-09
-3.48648e-08
-3.54234e-08
-1.32496e-08
-3.56337e-09
-2.03155e-09
2.23871e-07
5.06037e-07
9.54477e-08
-4.29058e-07
-1.76835e-07
3.00994e-07
3.43534e-07
-9.93713e-08
-4.43262e-07
-1.54819e-07
2.97752e-07
5.89924e-08
-3.50369e-07
-9.8197e-08
6.63424e-08
-4.72476e-08
-7.69694e-08
-2.96057e-08
1.45433e-09
2.76742e-08
4.17145e-08
-4.23897e-09
-4.75892e-08
2.87164e-08
7.87958e-08
-2.05779e-08
-7.4696e-08
-2.43698e-08
1.52141e-09
3.78427e-08
4.69677e-08
-1.96687e-08
-3.3283e-08
5.26566e-08
4.55164e-08
-3.2938e-08
-5.12018e-08
-1.86453e-08
6.7456e-09
-2.93808e-09
1.39745e-07
6.06132e-07
3.76788e-07
-4.92413e-07
-3.46244e-07
4.93886e-07
4.46437e-07
-3.40209e-07
-5.7975e-07
-5.36518e-08
3.15995e-07
-6.95134e-09
-3.38892e-07
-1.21595e-07
9.19602e-08
1.57868e-08
-8.45418e-08
-6.71703e-08
-1.48761e-08
1.2019e-08
1.53081e-08
-4.75893e-09
-1.62609e-08
5.95803e-08
1.27082e-07
-1.78715e-08
-1.3557e-07
-4.61459e-08
-3.56132e-10
9.4788e-09
2.4833e-08
4.96129e-10
-2.48709e-08
6.28031e-08
6.3084e-08
-4.71503e-08
-6.34176e-08
-1.11978e-08
-1.14928e-09
-5.0775e-09
8.34134e-08
4.57738e-07
3.8864e-07
-4.29134e-07
-2.58342e-07
5.77952e-07
2.62608e-07
-5.12138e-07
-4.80439e-07
9.01775e-08
3.14034e-07
-5.74927e-08
-3.40175e-07
-6.70006e-08
1.9051e-07
1.41558e-08
-1.75673e-07
-1.19503e-07
-1.79731e-08
2.51092e-08
4.3623e-09
-3.66819e-08
-1.70198e-08
7.04967e-08
1.68745e-07
5.41336e-08
-1.8165e-07
-1.40468e-07
-1.0913e-08
-5.20572e-09
3.3799e-10
-6.10191e-10
6.95359e-09
5.03927e-08
4.54211e-08
-3.81586e-08
-3.03913e-08
4.6489e-08
1.19307e-08
-3.64665e-08
3.4117e-08
2.12055e-07
1.00843e-07
-2.63106e-07
4.50446e-08
4.06225e-07
-2.34086e-08
-4.15421e-07
-1.88791e-07
1.95248e-07
1.95039e-07
-1.5227e-07
-2.51154e-07
4.39386e-08
9.99523e-08
-1.20638e-07
-1.2611e-07
-7.6775e-09
1.04341e-07
1.63252e-07
-1.45592e-08
-1.81769e-07
-6.70526e-08
5.87637e-08
9.20729e-08
6.64057e-08
-9.24005e-08
-1.66144e-07
-6.24087e-08
-3.27682e-09
-6.06244e-09
-5.86285e-10
2.02081e-09
6.52221e-08
1.47139e-07
-1.06178e-08
-1.29835e-07
1.17883e-07
1.58026e-07
-8.69312e-08
-1.24871e-07
-2.04734e-08
-3.2402e-08
-6.36016e-08
8.15005e-08
1.44133e-07
-1.38085e-08
-1.62743e-07
-9.66439e-08
1.12743e-07
1.16218e-07
-1.14385e-07
-1.33386e-07
3.64384e-08
8.24053e-09
-6.31024e-08
-1.39226e-08
8.59274e-08
1.76989e-07
1.191e-07
-9.28686e-08
-2.12088e-07
-5.98561e-08
6.05969e-08
1.25532e-08
-9.09148e-09
-1.59689e-08
-6.54181e-08
-7.39043e-08
-3.31608e-08
1.71499e-08
-2.41454e-08
-4.65998e-09
2.12693e-07
3.39306e-07
-3.40818e-08
-3.39824e-07
1.67075e-07
5.54668e-07
3.28269e-08
-4.3098e-07
-3.2744e-07
-1.05575e-07
3.59343e-10
3.56094e-08
4.11558e-08
2.76864e-08
-2.81252e-08
-7.28917e-08
7.05203e-09
7.36453e-08
-2.96565e-08
-7.96771e-08
-5.5713e-09
1.53822e-08
-3.82154e-09
1.38777e-08
6.72199e-08
1.29687e-07
1.04533e-07
-6.70537e-08
-1.71737e-07
-4.15492e-08
4.44686e-08
-3.1993e-08
-5.63627e-08
-2.12808e-08
-7.33322e-09
-3.03967e-09
1.34918e-08
7.71751e-08
3.56143e-08
-6.70326e-08
1.97434e-07
4.45982e-07
-2.32841e-08
-4.54413e-07
1.67377e-07
9.2107e-07
3.62543e-07
-6.55903e-07
-7.11359e-07
-2.2315e-07
2.20541e-08
4.10501e-08
4.47232e-08
7.25243e-08
4.5287e-08
-8.38366e-08
-1.36021e-07
1.22476e-08
9.02585e-08
-3.11518e-08
-9.22064e-08
-2.19668e-08
3.15754e-08
4.23183e-08
6.4638e-08
1.00005e-07
7.2696e-08
-7.59387e-08
-1.25319e-07
9.33196e-08
9.49178e-08
-1.22675e-07
-1.23261e-07
-3.40367e-08
-8.11494e-09
-2.795e-09
1.41238e-08
-4.61018e-08
2.48263e-08
-1.76414e-08
1.10354e-07
2.28357e-07
-3.5682e-08
-2.28505e-07
2.84962e-07
9.01021e-07
3.70715e-07
-7.00657e-07
-7.45262e-07
-1.65077e-07
2.38578e-08
-1.57514e-08
5.86241e-09
4.53927e-08
2.92599e-08
-5.95659e-08
-7.75628e-08
4.8457e-08
9.26358e-08
-4.93937e-08
-9.15301e-08
6.51804e-08
1.44102e-07
3.83785e-08
-5.9105e-08
-4.217e-08
8.35033e-09
-2.51534e-08
-5.90152e-08
2.91983e-07
4.52581e-07
-1.60188e-07
-4.62415e-07
-1.24447e-07
9.84751e-08
1.37526e-08
-1.09759e-07
-1.19103e-07
-4.31529e-08
5.6432e-09
9.88064e-08
2.08095e-07
2.62047e-08
-2.10515e-07
4.34953e-08
5.00242e-07
3.56315e-07
-2.92818e-07
-4.8888e-07
-1.97314e-07
-1.06826e-08
3.26612e-08
1.01551e-08
-3.23157e-08
-2.03394e-08
5.96044e-10
-6.98642e-09
-7.09518e-09
-1.73744e-09
1.30047e-09
4.36745e-08
9.89335e-08
9.58989e-08
3.61641e-08
-4.64923e-08
-9.6301e-08
-7.74602e-08
-4.14923e-08
-1.48764e-08
1.38006e-07
3.57889e-07
1.47918e-07
-3.03584e-07
-2.90335e-07
2.97861e-08
1.0513e-07
-5.40634e-08
5.09928e-09
-1.82304e-09
3.67757e-08
1.89783e-07
1.94545e-07
-8.84511e-08
-2.16176e-07
1.2572e-07
3.81735e-07
1.06094e-07
-2.58169e-07
-2.67656e-07
-9.30348e-08
2.85677e-08
6.84193e-08
2.3408e-09
-7.87665e-08
-5.82135e-08
6.32993e-09
3.81477e-08
4.41667e-08
4.19778e-08
3.30866e-08
2.66933e-08
2.87416e-08
2.4179e-08
-3.2377e-09
-5.21978e-08
-8.63163e-08
-6.14972e-08
6.77652e-10
6.21822e-08
1.10651e-07
6.76027e-08
-8.52562e-08
-1.4272e-07
-2.48569e-08
3.75248e-08
-2.71552e-08
-3.9797e-08
1.42883e-08
-1.19985e-08
1.33236e-08
8.89215e-08
7.76863e-08
-3.35762e-08
-7.20899e-08
9.5126e-08
2.58649e-07
1.13105e-07
-1.52802e-07
-1.98422e-07
-8.76361e-08
-7.89347e-09
3.19813e-08
4.30723e-08
-2.7104e-09
-5.23147e-08
-1.54071e-08
1.06451e-07
1.81484e-07
7.83013e-08
-1.03079e-07
-1.4893e-07
-6.87013e-08
1.7388e-08
9.04468e-08
8.093e-08
-6.43047e-08
-1.06784e-07
1.1708e-07
2.46353e-07
1.96988e-08
-2.182e-07
-1.71827e-07
1.43874e-08
7.70966e-08
-2.44298e-08
-8.80559e-08
-2.6836e-08
7.08875e-13
4.22653e-12
7.07026e-13
-3.62218e-12
5.2095e-13
1.7148e-12
4.1005e-12
5.37654e-12
-7.95611e-13
-5.6712e-12
-3.85275e-12
-1.65269e-12
-5.68125e-13
2.28813e-12
6.3361e-12
5.08787e-12
-6.94341e-12
-2.26293e-11
-1.8654e-11
4.8962e-13
6.63514e-12
-2.96132e-12
3.4762e-12
1.81331e-11
1.76567e-11
7.34849e-12
2.29811e-12
-1.16142e-11
-2.27525e-11
-1.22848e-11
-2.6378e-12
-2.11182e-12
1.09297e-12
8.66488e-13
4.006e-12
1.87513e-13
-1.85949e-11
-3.3898e-12
-2.07665e-12
-1.13035e-12
7.34643e-11
4.767e-11
-8.1786e-11
7.20088e-11
1.72323e-10
-6.06631e-11
-1.61118e-10
-1.03401e-10
-7.0017e-11
-3.34868e-11
4.48332e-11
2.47045e-10
4.34573e-10
3.87273e-10
4.64195e-10
9.60372e-11
-1.52591e-09
-3.28295e-09
-2.75743e-09
-7.71102e-10
-1.98553e-10
-3.52656e-10
-6.7626e-11
-2.8654e-12
-4.46213e-10
-1.33117e-09
-7.5437e-10
-8.41549e-11
-4.2804e-11
9.10955e-10
7.34185e-10
-7.30567e-10
-1.06882e-09
-2.69124e-10
-1.66195e-11
2.73096e-10
6.78579e-12
-2.21635e-10
1.87086e-11
4.97197e-11
8.57138e-10
1.74001e-10
-6.663e-10
1.12915e-09
2.01365e-09
-7.3239e-10
-2.67715e-09
-1.24919e-09
-9.18915e-12
9.63893e-11
-3.19061e-10
4.17442e-10
2.97279e-09
5.00624e-09
6.28587e-09
4.51501e-09
-3.83551e-09
-1.59382e-08
-1.80767e-08
-5.10282e-09
2.3642e-09
-2.71282e-09
-4.39761e-09
5.7341e-11
-9.56459e-10
-8.56834e-09
-7.19311e-09
-1.09972e-09
7.18983e-10
5.09163e-09
5.943e-09
-1.64026e-09
-6.02412e-09
-2.65392e-09
4.55727e-10
-8.05336e-10
-7.09321e-10
1.10875e-10
4.36687e-10
7.58983e-10
3.81419e-09
4.17968e-11
-2.8769e-09
3.52532e-09
6.71151e-09
-1.45495e-09
-8.77531e-09
-3.26089e-09
2.44697e-09
8.43077e-10
-2.43731e-09
-9.49087e-10
6.59772e-09
1.34637e-08
1.37206e-08
6.07826e-09
-9.00526e-09
-3.01727e-08
-3.19743e-08
7.94124e-09
2.05982e-08
-1.46905e-08
-2.80826e-08
-2.7744e-09
5.92476e-10
-2.18129e-08
-1.62822e-08
-1.2472e-09
-1.83172e-09
5.6753e-09
1.15315e-08
-1.4392e-09
-9.68091e-09
-1.55333e-10
6.63419e-09
-3.0214e-09
-6.18015e-09
-1.2742e-09
9.75355e-10
3.49994e-09
1.17256e-08
7.55443e-10
-8.51723e-09
6.94297e-09
1.57724e-08
-5.02379e-10
-1.8646e-08
-8.63931e-09
1.07596e-08
4.09108e-09
-7.86626e-09
-5.59666e-09
9.67073e-09
2.90537e-08
2.80014e-08
4.94088e-09
-2.15836e-08
-5.52889e-08
-6.17334e-08
4.16883e-08
8.39837e-08
-3.17141e-08
-9.12746e-08
-1.75203e-08
1.04715e-08
-4.83856e-08
-4.13403e-08
-2.37393e-09
-7.46245e-09
-1.45944e-09
1.46687e-08
6.83508e-10
-1.13012e-08
5.46018e-09
2.03904e-08
-1.25739e-09
-1.88332e-08
-6.75119e-09
3.78826e-10
7.50735e-09
2.66436e-08
7.83388e-09
-2.1658e-08
5.80319e-09
2.90655e-08
1.42998e-09
-2.89819e-08
-1.88309e-08
2.52631e-08
2.10268e-08
-1.34468e-08
-1.93901e-08
5.76741e-09
5.13754e-08
6.07176e-08
1.30094e-08
-2.88699e-08
-8.06773e-08
-1.21804e-07
6.18789e-08
2.22047e-07
-4.7293e-09
-2.05665e-07
-6.98892e-08
3.93617e-08
-8.1552e-08
-1.00699e-07
-1.49205e-08
-5.88632e-09
-1.30925e-08
9.08173e-09
3.99731e-09
-8.23293e-09
1.16126e-08
3.89361e-08
1.0441e-08
-3.63293e-08
-1.77998e-08
3.1684e-10
8.1491e-09
3.88274e-08
2.65031e-08
-3.69495e-08
-5.21312e-09
4.53919e-08
2.69425e-10
-4.1917e-08
-2.76934e-08
3.48137e-08
5.65193e-08
-2.99199e-09
-4.21312e-08
-8.74566e-09
7.40782e-08
1.05038e-07
3.40031e-08
-2.56415e-08
-1.01407e-07
-1.91428e-07
7.36773e-08
4.28985e-07
8.05992e-08
-3.74986e-07
-1.77698e-07
9.0026e-08
-9.27965e-08
-1.80614e-07
-5.31983e-08
-2.09591e-09
-1.03379e-08
-1.0569e-09
-9.97905e-10
4.02805e-09
2.60085e-08
4.68327e-08
2.50571e-08
-4.69761e-08
-4.31412e-08
2.45626e-09
7.36069e-10
3.01558e-08
4.17769e-08
-3.66731e-08
-1.32367e-08
6.25678e-08
-1.08309e-08
-6.47865e-08
-2.90837e-08
3.67928e-08
8.48014e-08
3.33006e-08
-6.01512e-08
-3.81352e-08
9.9663e-08
1.57993e-07
8.18531e-08
1.02162e-08
-1.30865e-07
-2.93272e-07
8.72988e-08
6.89726e-07
2.12802e-07
-5.93037e-07
-3.35132e-07
1.63863e-07
-6.94629e-08
-2.60935e-07
-1.11382e-07
-9.75124e-09
1.55377e-09
3.3053e-09
-4.72389e-09
2.2784e-08
6.41705e-08
5.18064e-08
1.01597e-08
-5.47235e-08
-7.42937e-08
-5.30832e-09
5.55338e-10
9.72516e-09
3.54752e-08
-2.43961e-08
4.68119e-09
9.57512e-08
-2.28314e-08
-1.09745e-07
-2.70078e-08
4.5887e-08
8.14502e-08
5.27284e-08
-6.50095e-08
-6.86708e-08
1.16868e-07
2.20692e-07
1.63549e-07
8.56336e-08
-1.5802e-07
-4.19375e-07
1.20058e-07
9.957e-07
3.48961e-07
-8.57307e-07
-5.06148e-07
2.55026e-07
-2.46088e-08
-3.21729e-07
-1.69063e-07
-2.46189e-08
7.55983e-09
7.69086e-09
-1.03561e-08
2.77703e-08
1.12726e-07
9.96653e-08
6.86157e-10
-7.86111e-08
-1.01755e-07
-3.16947e-08
5.77942e-09
3.05379e-09
1.66435e-08
-1.44868e-08
7.24275e-08
1.55893e-07
-5.55753e-08
-1.83069e-07
-1.04027e-08
8.20318e-08
4.31982e-08
1.92967e-08
-7.31166e-08
-7.99286e-08
1.26242e-07
2.51751e-07
2.52151e-07
1.93207e-07
-1.95461e-07
-5.44962e-07
1.84865e-07
1.32452e-06
4.59049e-07
-1.14974e-06
-6.47526e-07
3.4894e-07
2.30627e-08
-3.56394e-07
-2.12598e-07
-4.00139e-08
7.36632e-09
5.35511e-09
-1.91447e-08
1.88358e-08
1.19848e-07
1.34866e-07
2.64156e-08
-8.17314e-08
-1.10625e-07
-6.24711e-08
-8.0113e-09
1.64831e-09
1.65185e-09
2.90723e-08
2.02247e-07
1.90404e-07
-1.43303e-07
-2.66722e-07
-3.89851e-09
1.77368e-07
6.65735e-08
-6.14922e-08
-1.2251e-07
-8.6618e-08
1.05472e-07
2.69295e-07
3.84051e-07
2.9351e-07
-3.10503e-07
-6.64916e-07
2.74316e-07
1.55482e-06
5.27349e-07
-1.36365e-06
-7.32563e-07
3.99786e-07
3.80735e-08
-3.67456e-07
-2.18476e-07
-4.10141e-08
9.49281e-09
1.26675e-09
-3.66417e-08
1.19286e-08
1.24175e-07
1.21819e-07
9.85439e-09
-7.7131e-08
-8.61752e-08
-5.5802e-08
-2.19519e-08
4.78536e-09
-1.39843e-08
1.49378e-07
3.27175e-07
1.03648e-07
-2.54357e-07
-2.89261e-07
-5.14142e-08
1.9173e-07
2.36072e-07
2.06527e-08
-2.04916e-07
-1.71992e-07
7.84335e-08
3.26318e-07
5.13449e-07
3.0525e-07
-4.65658e-07
-7.11132e-07
3.65541e-07
1.57566e-06
5.27098e-07
-1.39504e-06
-7.5929e-07
3.99295e-07
2.65846e-08
-3.63664e-07
-2.01169e-07
-3.49403e-08
1.70566e-08
6.41579e-09
-5.64529e-08
-4.63176e-09
1.52746e-07
1.336e-07
-3.88674e-08
-1.18501e-07
-7.37018e-08
-7.80542e-09
2.68653e-08
4.80846e-08
-7.34078e-08
2.5466e-07
3.94434e-07
-5.91108e-08
-3.47365e-07
-2.44593e-07
-6.88166e-08
8.72417e-08
3.35249e-07
3.12184e-07
-1.6891e-07
-3.512e-07
1.60368e-08
4.01158e-07
5.30866e-07
1.79251e-07
-5.18452e-07
-6.06792e-07
3.80043e-07
1.41598e-06
4.72505e-07
-1.27415e-06
-6.72374e-07
3.59299e-07
-2.90896e-08
-3.39873e-07
-1.6498e-07
-2.55469e-08
2.73213e-08
2.94603e-08
-5.61127e-08
-4.53591e-08
1.58949e-07
1.93665e-07
-3.62595e-08
-1.68793e-07
-9.65324e-08
1.26327e-08
1.26688e-07
7.1038e-08
-9.89843e-08
2.78035e-07
3.9871e-07
-1.64924e-07
-3.85143e-07
-1.7845e-07
-3.30889e-08
8.41472e-09
2.51299e-07
5.91466e-07
8.75116e-08
-5.25833e-07
-1.45666e-07
4.23475e-07
4.13203e-07
-7.27584e-10
-4.32568e-07
-4.26795e-07
2.48842e-07
1.02896e-06
3.54272e-07
-9.47365e-07
-4.81407e-07
2.2299e-07
-4.75968e-08
-2.19721e-07
-1.15778e-07
-3.23786e-08
1.68132e-08
4.39542e-08
-1.49378e-08
-6.10644e-08
1.06382e-07
2.16981e-07
2.16955e-08
-1.60602e-07
-1.15726e-07
-4.47184e-09
1.32118e-07
1.0292e-08
-1.75575e-08
3.528e-07
2.81999e-07
-2.64298e-07
-3.32189e-07
-9.94634e-08
-3.33842e-09
3.84231e-10
1.29192e-07
6.10096e-07
3.92242e-07
-5.24883e-07
-3.49152e-07
3.11878e-07
2.23721e-07
-8.12818e-08
-2.5433e-07
-2.74784e-07
9.55317e-08
6.24441e-07
2.42898e-07
-5.86475e-07
-3.71326e-07
9.53312e-08
6.83421e-08
-7.22037e-08
-1.1844e-07
-9.18935e-08
-4.25384e-08
2.66367e-09
1.42078e-08
-1.38666e-08
6.24441e-08
1.84772e-07
6.28185e-08
-1.23341e-07
-1.08961e-07
-1.19619e-08
7.30377e-08
-2.14199e-08
3.64803e-08
3.15193e-07
1.8849e-07
-2.2092e-07
-2.67499e-07
-7.67402e-08
-1.06335e-09
-3.9902e-09
9.61309e-08
5.09921e-07
4.73243e-07
-4.12441e-07
-4.62444e-07
1.36164e-07
1.53934e-07
-1.33917e-08
-1.35798e-07
-2.31898e-07
7.61549e-09
4.01792e-07
1.67291e-07
-3.96263e-07
-2.6899e-07
1.49309e-07
2.06248e-07
-1.01469e-08
-1.87443e-07
-1.91235e-07
-1.03393e-07
-2.22789e-08
3.55847e-09
-5.78999e-09
3.30675e-08
1.26128e-07
7.69337e-08
-8.09841e-08
-9.79937e-08
-1.1314e-08
4.35014e-08
-2.45509e-08
2.30627e-08
2.47071e-07
2.19659e-07
-1.13325e-07
-2.50922e-07
-1.05544e-07
5.29649e-09
1.11133e-08
9.03555e-08
3.93399e-07
3.9935e-07
-2.98752e-07
-4.4974e-07
5.04421e-08
1.73701e-07
3.97523e-08
-1.07208e-07
-2.21328e-07
-3.38722e-08
2.97493e-07
1.12446e-07
-3.29608e-07
-1.16895e-07
3.45104e-07
2.25702e-07
-1.9232e-07
-2.93482e-07
-1.498e-07
-7.12524e-08
-4.66453e-08
4.65425e-08
2.39157e-08
-5.29218e-08
8.90308e-09
5.54032e-08
-3.05801e-08
-8.5091e-08
-3.23907e-08
1.7286e-08
-4.09189e-08
4.02979e-08
2.22613e-07
1.72807e-07
-8.13899e-08
-1.94281e-07
-9.83892e-08
2.73441e-08
7.70663e-08
1.30003e-07
2.48047e-07
1.44763e-07
-2.80864e-07
-2.85233e-07
8.36015e-08
1.5159e-07
-3.49817e-09
-1.31813e-07
-1.53391e-07
-2.67288e-08
1.16412e-07
1.85561e-08
-1.36479e-07
1.25694e-07
2.79403e-07
-1.15472e-07
-3.02466e-07
-1.0027e-07
9.10709e-08
1.20048e-07
-1.13531e-07
-3.53452e-08
2.25286e-07
-4.97695e-08
-2.56574e-07
-1.20165e-07
-2.30093e-08
-1.33396e-08
-9.1195e-09
-1.162e-08
-2.0638e-08
2.17907e-08
1.2216e-07
1.77448e-07
9.83686e-08
-1.19211e-07
-1.81302e-07
6.29356e-08
2.47846e-07
1.74986e-07
1.5479e-08
-1.76314e-07
-2.71291e-07
-5.7259e-08
1.30479e-07
4.11714e-08
-8.28515e-08
-9.42801e-08
-5.10419e-08
-7.57433e-10
1.23162e-08
-1.74343e-08
1.90687e-08
1.03902e-07
1.07123e-08
-1.02569e-07
-4.61839e-08
8.98034e-08
2.34763e-07
1.10271e-07
-2.31194e-07
-8.56869e-08
4.35588e-07
1.66318e-07
-4.21563e-07
-3.71556e-07
-1.12618e-07
-1.18635e-08
9.73878e-09
-1.10576e-09
3.45096e-08
-2.10028e-08
2.397e-08
2.84507e-07
3.70801e-07
-5.4604e-08
-4.18724e-07
6.9142e-09
6.79368e-07
4.33604e-07
-3.98155e-07
-6.18829e-07
-1.973e-07
1.1808e-07
3.54743e-08
-9.47172e-08
-7.40477e-08
-2.2244e-08
-5.19424e-09
2.46707e-09
2.376e-09
-5.97821e-09
9.33211e-09
3.20473e-08
3.40302e-08
4.59308e-08
8.05001e-08
1.21288e-07
9.71477e-08
-8.03733e-08
-2.22986e-07
3.52509e-08
4.27984e-07
2.16971e-07
-3.7001e-07
-4.28565e-07
-1.10371e-07
1.59187e-08
-1.61255e-08
8.16045e-09
5.03755e-08
1.87887e-08
-5.5362e-08
1.28368e-07
3.33743e-07
9.38597e-08
-3.20727e-07
-1.2588e-07
7.62803e-07
9.49585e-07
-2.68657e-07
-1.0078e-06
-3.92488e-07
1.43486e-07
4.52889e-08
-1.01347e-07
-8.56692e-08
-4.4391e-08
-2.02583e-08
1.81662e-08
4.47945e-08
-5.33341e-10
-4.79092e-08
-8.03476e-10
8.00546e-08
1.03147e-07
9.4286e-08
1.03542e-07
7.73544e-08
-9.73719e-08
-2.2579e-07
1.44974e-07
4.38585e-07
-3.0967e-08
-4.40957e-07
-2.4209e-07
3.76e-08
3.29521e-08
-6.59979e-08
-4.42247e-08
2.84077e-09
4.82331e-08
-3.89244e-08
-1.46661e-09
1.6657e-07
1.30604e-07
-1.35547e-07
-7.21425e-08
6.65536e-07
1.00956e-06
-8.18929e-08
-1.03629e-06
-5.04169e-07
1.18364e-07
6.77495e-09
-1.39871e-07
-7.86988e-08
-2.01721e-08
-3.08795e-10
2.55447e-08
4.45985e-08
-5.44747e-09
-5.07436e-08
7.81421e-08
2.61558e-07
2.16558e-07
-6.79839e-09
-1.37294e-07
-1.3079e-07
-1.39136e-07
-1.08215e-07
3.47649e-07
7.37621e-07
1.65087e-10
-7.06691e-07
-2.93902e-07
1.59384e-07
5.5404e-08
-1.49855e-07
-1.42299e-07
-1.12114e-07
-1.55429e-08
3.63891e-10
1.64857e-08
8.75548e-08
6.26691e-08
-6.93471e-08
-4.09057e-08
3.41493e-07
6.73334e-07
1.68199e-07
-5.83517e-07
-5.00365e-07
-1.14878e-07
-1.32691e-08
-4.02045e-09
1.68947e-09
-2.56296e-09
5.12226e-09
5.97391e-09
-1.07319e-09
3.51735e-09
3.31813e-08
6.72973e-08
4.79197e-08
2.32464e-09
1.11437e-08
4.50793e-08
1.74781e-08
-8.35623e-08
-1.1183e-07
1.51835e-07
4.80723e-07
1.96171e-07
-4.09959e-07
-3.71123e-07
6.16668e-08
1.5288e-07
-3.96996e-08
-1.62653e-07
-5.90524e-08
-3.98421e-09
3.57772e-08
5.52646e-08
6.8093e-09
-5.64647e-08
-9.11288e-09
1.42021e-07
2.33525e-07
1.53172e-07
-6.93966e-08
-2.29605e-07
-1.74534e-07
-5.69231e-08
-8.08304e-09
-6.16577e-09
-5.11525e-09
1.42035e-08
3.30042e-08
3.65958e-08
2.66612e-08
1.92365e-09
-2.25134e-08
-2.19613e-08
5.03377e-09
4.94542e-08
8.3305e-08
5.0871e-08
-5.68906e-08
-1.20058e-07
1.42186e-09
2.42803e-07
2.96702e-07
-1.57116e-08
-3.31721e-07
-2.31088e-07
5.62111e-08
9.96014e-08
-4.77953e-08
-1.10754e-07
-1.16235e-07
-2.49193e-08
-1.19174e-10
6.96785e-09
9.25542e-09
-1.80328e-09
2.16152e-08
1.01495e-07
1.30005e-07
2.82555e-08
-9.48079e-08
-1.15467e-07
-5.72082e-08
-1.06143e-08
1.01182e-10
2.59151e-09
1.38685e-09
-1.39974e-09
2.76538e-08
8.21991e-08
6.33907e-08
-4.52155e-08
-9.0065e-08
-3.13837e-08
9.5657e-10
1.19508e-08
1.06556e-07
1.44565e-07
-4.18261e-08
-1.59227e-07
4.26638e-08
2.25811e-07
1.09784e-07
-1.29614e-07
-2.21359e-07
-5.86012e-08
1.62892e-07
1.4856e-07
-6.96351e-08
-1.88714e-07
-9.71778e-12
2.88241e-12
-4.28641e-12
4.94302e-13
1.01212e-12
-1.29392e-12
-9.06917e-13
-6.57636e-13
2.7379e-13
2.18989e-12
9.2979e-13
-1.61287e-12
-1.74877e-14
1.05836e-12
2.78426e-12
3.43681e-12
1.32527e-12
-5.79078e-13
-9.03145e-12
-9.22821e-12
-6.6157e-12
-1.09295e-11
4.35892e-12
1.99283e-11
2.39967e-11
6.80592e-12
-1.42453e-11
-2.11173e-11
-8.94153e-12
6.89662e-12
4.95493e-12
-4.75661e-12
-3.19275e-12
-1.29288e-12
-7.75806e-13
-4.30547e-12
-7.65142e-12
3.30097e-12
2.90072e-12
-9.80569e-12
4.99267e-10
5.89589e-11
-3.03697e-10
8.42327e-11
-8.79121e-12
-1.01555e-10
-3.58213e-11
2.03225e-11
-2.86841e-12
5.26326e-11
1.42941e-10
5.11497e-11
-6.28125e-11
1.20717e-10
3.28332e-10
3.18342e-11
-3.4458e-10
-5.40054e-10
-2.13143e-09
-2.31169e-09
-4.3881e-11
-2.35424e-10
-3.05059e-10
5.78438e-10
6.60092e-10
1.60725e-11
-6.39775e-10
-4.82465e-10
6.34304e-10
1.0354e-09
-2.13534e-10
-1.23431e-09
-8.57397e-10
-1.71082e-10
2.67586e-11
3.60036e-10
2.20552e-10
-2.06317e-10
-2.37668e-10
2.74963e-10
3.73529e-09
-2.00616e-10
-3.13564e-09
-9.19435e-11
1.59118e-10
-2.54775e-10
-7.22605e-11
2.16655e-10
1.05408e-10
-2.08525e-10
7.45107e-11
6.95338e-10
1.17588e-09
2.12255e-09
2.59648e-09
3.80393e-10
-1.98484e-09
-1.70029e-09
-7.59827e-09
-1.27981e-08
4.75101e-11
2.1578e-09
-4.49173e-09
-1.77038e-09
7.77055e-10
-1.7665e-10
-1.43232e-09
-1.0006e-09
3.38694e-09
5.817e-09
-2.26242e-10
-6.56738e-09
-5.42728e-09
-1.19021e-09
-4.49806e-11
-2.19959e-10
1.35835e-09
3.27844e-10
-4.41379e-10
2.90099e-09
1.22018e-08
-1.84991e-09
-1.02534e-08
-2.51833e-10
1.0499e-09
-6.51967e-10
-5.68922e-10
9.54941e-11
3.81105e-10
-4.84902e-11
1.03244e-10
1.92647e-09
4.47048e-09
6.47878e-09
5.41334e-09
-9.95743e-10
-5.51462e-09
-3.50256e-09
-1.13392e-08
-1.73895e-08
1.39765e-08
1.10341e-08
-1.99556e-08
-1.46943e-08
-9.76081e-10
-1.10798e-09
-1.84166e-09
-3.75591e-10
8.70225e-09
1.35384e-08
-6.69161e-10
-1.51274e-08
-1.00191e-08
1.36722e-09
1.73784e-09
-4.05128e-09
2.70613e-11
3.14205e-09
-5.47365e-10
9.70638e-09
2.9715e-08
-3.93417e-09
-2.18825e-08
-1.75702e-09
2.91095e-09
-1.48455e-09
-1.80195e-09
-8.16881e-10
2.6045e-10
1.15113e-09
4.84486e-10
3.7598e-09
1.17749e-08
1.62272e-08
1.09698e-08
-3.21926e-09
-1.03231e-08
-6.04521e-09
-2.12696e-08
-2.95339e-08
4.54473e-08
3.81143e-08
-5.18627e-08
-4.78483e-08
-7.042e-09
-3.42984e-09
-2.00173e-09
6.10997e-10
1.4948e-08
2.46773e-08
1.50118e-09
-2.52653e-08
-1.70459e-08
6.09941e-09
6.79939e-09
-9.63604e-09
-7.55729e-09
8.24535e-09
-8.83991e-10
2.17149e-08
6.39726e-08
1.79643e-09
-4.37143e-08
-1.1482e-08
5.67309e-09
-1.65027e-09
-2.95141e-09
-1.70458e-09
-5.09611e-10
3.13096e-09
2.30506e-09
5.19043e-09
2.21009e-08
3.43267e-08
2.52332e-08
-3.33445e-11
-9.18073e-09
7.60514e-10
-3.37818e-08
-6.24275e-08
7.98834e-08
1.10045e-07
-8.09941e-08
-1.17432e-07
-2.87941e-08
-8.82051e-09
-4.51054e-09
1.40329e-09
1.86811e-08
3.66707e-08
8.77804e-09
-3.23515e-08
-2.52093e-08
1.0953e-08
1.72144e-08
-1.37204e-08
-2.34632e-08
1.28331e-08
2.3405e-09
3.15625e-08
1.09021e-07
2.10316e-08
-7.55997e-08
-3.05098e-08
8.50934e-09
-1.477e-09
-4.80755e-09
-2.08803e-09
-1.88469e-09
2.08174e-09
5.5419e-09
8.56292e-09
3.18407e-08
5.23128e-08
3.9248e-08
9.23668e-09
1.19945e-08
3.11256e-08
-4.66624e-08
-1.15232e-07
1.10326e-07
2.35208e-07
-7.8347e-08
-2.32331e-07
-8.53399e-08
-1.71794e-08
-1.18891e-08
3.03287e-09
2.33276e-08
4.08237e-08
8.9577e-09
-3.52314e-08
-2.11632e-08
2.17575e-08
2.56579e-08
-1.6035e-08
-4.75704e-08
8.12533e-11
1.75106e-08
2.48642e-08
1.29966e-07
4.72951e-08
-9.26746e-08
-5.31421e-08
8.14763e-09
-5.42834e-11
-7.45132e-09
-3.13381e-09
-1.2875e-09
-1.94548e-09
3.30096e-09
1.44356e-08
3.68221e-08
5.05e-08
3.71133e-08
3.02967e-08
7.31963e-08
1.11645e-07
-5.58621e-08
-2.06008e-07
1.39769e-07
3.92703e-07
-4.82465e-08
-3.69776e-07
-1.75934e-07
-2.4867e-08
-1.65944e-08
2.53064e-09
3.08956e-08
4.21679e-08
-5.79378e-10
-4.53311e-08
-6.91912e-09
5.40504e-08
2.94648e-08
-3.99791e-08
-7.87409e-08
-3.77011e-08
2.49211e-08
7.27933e-09
1.01368e-07
6.4872e-08
-7.75791e-08
-6.60636e-08
7.54415e-09
1.02774e-09
-9.63294e-09
-3.87443e-09
3.44795e-09
3.29162e-09
-2.28865e-09
1.05017e-08
3.10568e-08
1.70593e-08
8.11954e-09
5.20399e-08
1.73727e-07
2.5669e-07
-6.02127e-08
-3.29381e-07
1.9365e-07
5.54941e-07
-3.71404e-08
-5.08664e-07
-2.72371e-07
-2.05549e-08
-3.20965e-09
4.13029e-10
3.05776e-08
3.87392e-08
-1.33249e-08
-6.70279e-08