/*--------------------------------*- C++ -*----------------------------------*\
| =========                 |                                                 |
| \\      /  F ield         | OpenFOAM: The Open Source CFD Toolbox           |
|  \\    /   O peration     | Version:  5.0                                   |
|   \\  /    A nd           | Web:      www.OpenFOAM.org                      |
|    \\/     M anipulation  |                                                 |
\*---------------------------------------------------------------------------*/
FoamFile
{
    version     2.0;
    format      ascii;
    class       volScalarField;
    location    "50.4676134421789371";
    object      Cvw;
}
// * * * * * * * * * * * * * * * * * * * * * * * * * * * * * * * * * * * * * //

dimensions      [0 2 -3 0 0 0 0];

internalField   nonuniform List<scalar> 
60000
(
6.95524e-11
-2.93122e-11
-1.14377e-10
-5.27242e-11
8.38617e-12
3.41463e-12
-9.0763e-12
-3.33549e-12
1.71107e-11
2.8151e-11
5.34235e-12
-5.98423e-11
-5.85044e-11
-3.3564e-11
-5.17624e-11
2.41589e-11
2.21137e-10
3.16503e-10
1.80643e-10
-8.23307e-11
-4.08719e-10
-2.18346e-10
6.56979e-11
-3.13165e-10
-3.42554e-10
2.33262e-10
6.39129e-10
5.73281e-10
5.77979e-11
-2.30124e-10
-3.1045e-10
-3.5942e-10
-2.2394e-10
1.32604e-10
4.30513e-10
1.12052e-10
-4.73736e-11
9.47581e-11
1.03234e-10
9.59461e-11
-1.89262e-09
-3.88242e-09
-1.93658e-09
9.28762e-10
3.26446e-10
-1.15508e-09
-6.28042e-10
2.1819e-10
1.26158e-09
2.88905e-09
1.14041e-09
-4.18849e-09
-4.44089e-09
-7.10282e-10
7.22972e-10
1.94851e-09
2.36843e-09
-2.10497e-09
-7.73815e-09
-1.38179e-09
9.88699e-09
5.80534e-09
-1.06033e-08
-1.56486e-08
-5.44752e-11
9.67219e-09
7.21593e-09
6.21437e-09
3.02542e-09
-1.62871e-09
-9.20934e-10
-3.06749e-09
-6.19451e-09
-3.93584e-09
3.97494e-09
6.03151e-09
5.35281e-10
1.73074e-09
4.77944e-09
2.41139e-09
2.78195e-09
-1.11473e-08
-7.42651e-09
2.63664e-09
2.40639e-09
-2.56901e-09
-3.42609e-09
-7.46492e-10
2.27135e-09
8.3197e-09
9.69774e-09
-6.05919e-09
-1.54903e-08
-3.41577e-09
8.52711e-09
1.18128e-08
6.06507e-09
-1.29439e-08
-3.18635e-08
-1.55224e-09
6.04738e-08
3.14707e-08
-6.83263e-08
-6.80234e-08
2.33186e-08
5.24086e-08
1.57322e-08
-5.37724e-09
1.36513e-10
1.01471e-09
3.19648e-09
2.56045e-09
-7.87706e-09
-1.33067e-08
-2.01083e-09
1.26637e-08
5.40601e-09
-3.33377e-09
7.78566e-09
1.52449e-08
1.93509e-08
-2.23504e-08
-2.12395e-08
2.80603e-09
5.32232e-09
-2.04156e-09
-7.37415e-09
-3.0638e-09
1.69509e-09
1.21522e-08
2.46435e-08
-3.58435e-09
-3.13911e-08
-7.74729e-09
2.45961e-08
2.78653e-08
7.49455e-09
-2.75354e-08
-6.24477e-08
-2.82535e-10
1.41979e-07
6.92869e-08
-1.75321e-07
-1.48889e-07
8.57588e-08
1.26653e-07
1.33576e-08
-4.09601e-08
-8.02095e-09
1.6981e-08
1.72721e-08
1.30093e-08
-2.90448e-09
-2.10155e-08
-1.14768e-08
1.86448e-08
1.75459e-08
-7.9725e-09
2.45342e-10
3.21972e-08
6.65439e-08
-2.16423e-08
-6.09084e-08
-9.95247e-09
8.26412e-09
-3.78125e-10
-8.75189e-09
-6.27887e-09
-4.62306e-10
1.53565e-08
5.45976e-08
1.70641e-08
-6.74446e-08
-3.70278e-08
4.94864e-08
6.04045e-08
1.09994e-09
-5.5989e-08
-1.09388e-07
-3.6624e-08
2.43083e-07
1.58685e-07
-3.21292e-07
-2.99697e-07
1.71106e-07
2.54305e-07
3.56262e-08
-8.37933e-08
-3.30791e-08
3.57921e-08
4.36326e-08
2.66047e-08
7.17402e-09
-2.23849e-08
-3.38357e-08
1.44686e-08
4.46804e-08
3.71781e-09
-1.91661e-08
3.71121e-08
9.61935e-08
4.58572e-08
-8.99128e-08
-5.30057e-08
6.78682e-09
2.26345e-09
-5.29676e-09
-6.60995e-09
-2.3106e-09
1.31505e-08
8.40653e-08
8.18382e-08
-9.01032e-08
-1.19049e-07
6.64518e-08
1.31347e-07
-1.72312e-08
-1.15315e-07
-1.43421e-07
-1.19753e-07
2.91509e-07
2.92269e-07
-4.57763e-07
-5.05825e-07
2.46815e-07
4.04959e-07
8.97826e-08
-9.28406e-08
-6.43014e-08
1.78295e-08
5.18289e-08
3.67654e-08
1.38823e-08
-9.17758e-09
-3.81768e-08
-1.42147e-08
5.39705e-08
4.23091e-08
-2.59268e-08
-9.79812e-09
2.78891e-08
9.94759e-08
-3.64519e-08
-9.10695e-08
-1.10911e-08
6.28998e-09
9.3884e-10
8.64438e-10
-2.45816e-09
7.86245e-09
1.00121e-07
1.57204e-07
-5.76424e-08
-2.11148e-07
6.2332e-08
2.43225e-07
-4.14768e-08
-2.2862e-07
-1.53899e-07
-1.69222e-07
2.3539e-07
3.77903e-07
-5.20792e-07
-6.43055e-07
2.90256e-07
4.90029e-07
1.37405e-07
-6.51609e-08
-6.09978e-08
2.1547e-09
3.85237e-08
3.00953e-08
8.37557e-09
-7.28634e-09
-2.46809e-08
-2.15511e-08
3.39024e-08
6.55336e-08
1.22817e-08
-4.90292e-08
-5.21562e-08
3.82405e-08
1.96587e-08
-6.11182e-08
-2.10013e-08
5.87084e-09
1.68406e-09
8.04895e-09
4.35082e-09
2.56591e-09
1.02952e-07
2.04179e-07
-1.7854e-08
-2.51053e-07
9.73655e-08
3.4264e-07
-7.15626e-08
-3.34732e-07
-1.38784e-07
-1.21814e-07
1.19783e-07
3.60404e-07
-5.16796e-07
-6.70537e-07
2.63748e-07
4.91425e-07
1.82357e-07
-1.91155e-08
-4.31236e-08
2.43663e-09
3.3653e-08
2.9482e-08
6.48191e-09
-1.89453e-08
-3.30315e-08
-1.97976e-08
2.10837e-08
5.87372e-08
5.38213e-08
-2.20081e-08
-5.82862e-08
-4.49857e-08
4.42315e-09
-2.48327e-08
-6.77428e-09
1.2077e-08
2.6085e-10
1.35053e-09
2.75493e-09
5.96987e-09
9.57043e-08
1.80366e-07
-5.08947e-08
-2.1462e-07
2.05977e-07
3.66153e-07
-1.01696e-07
-3.5534e-07
-9.71551e-08
1.35606e-08
3.85167e-08
2.09772e-07
-5.07827e-07
-6.03009e-07
1.71854e-07
4.29711e-07
2.26647e-07
3.16832e-08
-2.38202e-08
8.19724e-09
2.9635e-08
3.13186e-08
2.93655e-08
-6.98236e-09
-5.5719e-08
-4.53807e-08
1.12415e-08
4.85013e-08
6.58252e-08
3.65681e-08
-8.379e-09
-7.34574e-08
-4.69591e-08
-2.29582e-08
1.99244e-08
3.59717e-08
2.02789e-09
-4.05699e-09
-6.27833e-09
7.27244e-09
9.88654e-08
1.0181e-07
-1.3896e-07
-1.14151e-07
3.18057e-07
2.95884e-07
-1.36376e-07
-2.94932e-07
-6.20821e-08
1.40706e-07
3.93539e-08
-4.63477e-09
-4.65555e-07
-4.93168e-07
-4.09308e-09
3.19013e-07
2.68837e-07
6.94299e-08
-1.25345e-08
1.40229e-08
2.24858e-08
2.30463e-08
4.93176e-08
2.99757e-08
-5.23449e-08
-8.06947e-08
-1.74407e-08
3.6572e-08
5.69773e-08
7.18776e-08
4.48479e-08
-3.72566e-08
-1.06707e-07
-7.06807e-08
5.39134e-08
9.51637e-08
1.73411e-08
-5.58966e-09
-4.1448e-09
4.23626e-09
1.17186e-07
7.97434e-08
-1.80965e-07
-3.95211e-08
3.42939e-07
1.96244e-07
-2.01143e-07
-2.39695e-07
-5.38406e-08
1.17905e-07
6.20587e-08
-1.02572e-07
-3.02651e-07
-3.89058e-07
-2.23351e-07
1.92851e-07
2.84317e-07
7.94664e-08
-9.63617e-09
1.48737e-08
7.77625e-09
1.27995e-08
6.97206e-08
6.87379e-08
-3.47397e-08
-9.96457e-08
-5.07033e-08
1.25982e-08
2.88903e-08
5.39384e-08
6.05636e-08
4.52632e-08
-1.32437e-07
-1.31369e-07
7.6152e-08
1.47503e-07
4.3811e-08
-5.79396e-09
-4.68462e-09
3.6501e-09
1.40519e-07
1.2221e-07
-1.68437e-07
-4.24489e-08
3.03501e-07
1.0148e-07
-2.92082e-07
-1.7495e-07
-5.72727e-09
-8.04344e-08
-3.3619e-08
6.55644e-09
-1.553e-08
-2.77736e-07
-3.47775e-07
1.1989e-07
2.71716e-07
6.66391e-08
-8.70326e-09
9.99673e-09
-2.3108e-08
-7.01746e-09
1.06734e-07
1.31427e-07
-1.2587e-08
-1.18158e-07
-7.14931e-08
-8.72839e-09
-1.62328e-08
-1.85263e-08
1.04438e-08
1.35289e-07
-5.59994e-08
-1.37944e-07
4.72927e-08
1.30893e-07
6.30442e-08
-2.22629e-09
-2.02445e-08
-1.13039e-09
1.7372e-07
2.12046e-07
-1.46842e-07
-1.31279e-07
2.24959e-07
1.45118e-08
-3.63927e-07
-1.00688e-07
1.32337e-07
-2.63154e-07
-3.21586e-07
1.66032e-07
3.17238e-07
-1.56602e-07
-3.10108e-07
1.23808e-07
2.26685e-07
3.87706e-08
-3.19913e-09
1.18104e-08
-5.75019e-08
-6.17557e-08
1.2691e-07
2.30129e-07
3.56563e-08
-1.52357e-07
-9.97818e-08
-7.93236e-09
-4.12094e-08
-1.09338e-07
-5.78456e-08
1.5059e-07
8.22968e-08
-6.53671e-08
-3.08498e-08
3.34079e-08
5.22182e-08
3.4977e-08
-4.5168e-09
-5.53423e-08
1.1635e-07
3.35047e-07
-3.7072e-08
-2.48994e-07
7.50967e-08
-8.50384e-08
-3.98916e-07
-5.20526e-08
3.04147e-07
-2.1615e-07
-5.91156e-07
1.44603e-07
5.33783e-07
8.93174e-09
-1.81407e-07
9.36935e-08
1.38517e-07
2.1538e-08
9.4407e-09
3.06296e-08
-5.18399e-08
-1.23632e-07
7.26645e-08
3.0669e-07
1.22933e-07
-1.85448e-07
-1.65561e-07
-2.03712e-08
-3.81134e-08
-1.38909e-07
-7.97804e-08
9.83153e-08
1.24805e-07
7.73506e-09
-5.59495e-08
-4.04883e-08
2.39296e-09
3.45622e-08
5.00696e-08
-3.24256e-08
-4.98741e-08
2.75441e-07
1.61324e-07
-2.2317e-07
-1.13035e-07
-1.75156e-07
-3.17079e-07
2.83613e-08
3.39839e-07
-1.48721e-07
-6.37942e-07
2.36485e-08
5.88626e-07
1.82216e-07
-1.19692e-07
1.58537e-08
1.00671e-07
4.97692e-08
2.99977e-08
5.5364e-08
6.11854e-09
-1.21307e-07
-2.75748e-08
3.23076e-07
2.55469e-07
-2.09342e-07
-2.90072e-07
-5.72092e-08
-2.5467e-08
-1.28703e-07
-9.39331e-08
5.98711e-08
8.96221e-08
3.51596e-08
-3.50365e-09
-2.68814e-08
-2.03785e-08
1.05183e-09
2.10618e-08
1.0885e-08
-9.69272e-08
7.44365e-08
2.58659e-07
-2.98436e-08
-2.1529e-07
-1.82841e-07
-7.98769e-08
8.09211e-08
1.57632e-07
-1.94524e-07
-5.70685e-07
-5.3704e-08
5.39771e-07
2.49617e-07
-1.33529e-07
-3.11933e-08
1.34308e-07
1.08059e-07
5.20307e-08
5.57988e-08
3.23074e-08
-5.84222e-08
-4.40062e-08
2.93067e-07
4.3341e-07
-1.14256e-07
-4.7577e-07
-1.81488e-07
8.45289e-09
-1.17398e-07
-9.29843e-08
3.68139e-08
4.48965e-08
1.28015e-08
4.42385e-08
1.3051e-08
-3.62701e-08
-1.29349e-08
2.86034e-11
-7.94684e-09
-6.55665e-08
-7.06466e-10
2.17308e-07
3.34772e-08
-2.00567e-07
-1.94189e-08
5.02014e-08
-3.16808e-08
1.60441e-08
-1.74901e-07
-4.39855e-07
-5.5178e-08
4.39116e-07
1.81851e-07
-1.89044e-07
-1.78592e-08
1.96402e-07
1.30794e-07
5.39135e-08
7.8754e-08
5.21085e-08
-6.71194e-08
-4.88529e-08
2.49039e-07
5.41923e-07
1.63794e-07
-5.0392e-07
-4.29479e-07
-3.53688e-08
-5.338e-08
-2.97673e-08
1.10627e-09
5.51227e-09
1.2217e-09
4.32094e-08
1.79795e-08
-5.6433e-08
-2.2315e-08
2.76617e-08
-3.41281e-09
-4.18633e-08
-4.34528e-09
9.19106e-08
-4.96986e-09
-3.13789e-08
6.99753e-08
-6.66651e-08
-8.73671e-08
7.09562e-08
-8.79277e-08
-3.21017e-07
-2.21876e-08
3.28694e-07
9.10335e-08
-1.29307e-07
5.26636e-08
1.30289e-07
4.49638e-08
5.05396e-08
1.28349e-07
1.22259e-07
-1.08613e-07
-1.87615e-07
1.61223e-07
4.76993e-07
3.45789e-07
-2.15868e-07
-4.63187e-07
-1.83833e-07
-1.39147e-08
-2.23442e-09
4.54166e-09
-1.87482e-08
-2.28771e-08
7.43881e-08
9.93474e-08
-1.29073e-07
-2.09269e-07
4.0613e-08
1.39727e-07
2.79413e-08
-2.83407e-08
-1.65446e-08
2.51524e-08
6.43596e-08
-3.20525e-08
-1.47579e-07
-3.78246e-08
1.37479e-07
5.94556e-08
-1.36929e-07
-5.04005e-08
1.40171e-07
8.22867e-08
-1.47438e-08
-1.36623e-08
-1.30993e-08
-5.62572e-08
-5.65471e-08
1.39659e-07
2.64882e-07
-5.02027e-08
-3.34765e-07
9.94319e-10
3.87868e-07
3.4488e-07
5.01209e-08
-2.20768e-07
-2.158e-07
-7.09069e-08
3.93201e-08
-1.80837e-08
-1.43993e-07
-7.89186e-08
1.95277e-07
2.27994e-07
-1.90154e-07
-4.90352e-07
-8.20173e-08
3.96524e-07
2.28864e-07
-7.02109e-08
-7.59573e-08
4.06372e-09
1.28587e-08
-3.20436e-08
-6.00915e-08
-2.85918e-08
4.33286e-08
7.86974e-08
1.97709e-08
-4.03737e-08
-7.7679e-09
2.25829e-08
-9.92452e-09
-3.85512e-08
-5.47086e-08
-6.20612e-08
4.61648e-08
2.74311e-07
2.84645e-07
-1.48093e-07
-4.7034e-07
-1.32349e-07
2.94513e-07
2.67868e-07
9.45403e-08
-1.72759e-08
-5.27726e-08
-9.20171e-09
1.24572e-07
4.91908e-08
-1.44243e-07
-1.21738e-07
1.29355e-07
1.77091e-07
-1.08055e-07
-4.34426e-07
-2.6986e-07
3.47668e-07
4.61785e-07
-4.92061e-09
-2.27408e-07
-1.08979e-07
7.42303e-09
4.13562e-08
4.36672e-08
2.5484e-08
-1.26503e-08
-3.04824e-08
-3.14073e-09
1.33848e-08
-7.06933e-09
-1.29504e-08
-9.08709e-09
-2.547e-08
-4.37029e-08
-3.38786e-08
3.9514e-08
1.68152e-07
1.65151e-07
-1.93319e-07
-5.13645e-07
-1.41933e-07
3.67878e-07
2.91452e-07
5.32724e-08
-2.26594e-08
-1.0248e-08
6.27152e-08
1.65387e-07
5.76432e-08
-5.13795e-08
-6.08563e-08
1.01848e-08
6.02894e-08
-3.9021e-09
-1.88571e-07
-1.95072e-07
1.54238e-07
3.30658e-07
2.609e-09
-2.39129e-07
-8.28822e-08
7.01031e-08
7.58914e-08
8.49049e-08
6.81113e-08
-2.82544e-08
-9.54119e-08
-7.1505e-08
-2.31081e-08
1.38619e-08
5.22009e-08
5.44592e-08
-5.78452e-09
-5.84246e-08
-4.75438e-08
-5.05583e-09
4.7717e-08
9.3279e-08
-5.3481e-08
-3.99765e-07
-3.44798e-07
2.1353e-07
3.99698e-07
5.43509e-08
-1.6179e-07
-3.14809e-08
1.50556e-07
6.20892e-08
9.90629e-09
6.47008e-10
-2.91239e-08
-9.60288e-08
-2.83101e-08
9.73046e-08
1.15917e-08
-8.88636e-08
8.38194e-08
2.17911e-07
2.98054e-08
-1.12911e-07
-2.7327e-08
-1.36089e-08
-7.31048e-08
-1.72824e-08
5.87061e-08
3.06619e-08
-2.27359e-08
-3.19736e-08
-1.23032e-08
3.77171e-08
8.95323e-08
5.25831e-08
-8.72873e-08
-2.05505e-07
-1.58848e-07
1.80963e-08
1.30478e-07
1.20562e-07
1.81449e-08
-1.54936e-07
-1.60372e-07
7.76872e-08
1.98689e-07
5.51289e-08
-8.12394e-08
-3.78019e-08
6.09885e-08
-3.64844e-09
-7.16975e-10
1.85008e-08
-4.4698e-08
-1.39214e-07
-4.79653e-08
1.42616e-07
4.36217e-08
-1.68438e-07
-2.04244e-08
2.0951e-07
1.3439e-07
6.98068e-09
-3.80342e-09
-7.11036e-08
-1.24096e-07
-2.92367e-08
6.81861e-08
6.70696e-08
4.07871e-08
3.97114e-08
4.66842e-08
3.63542e-08
-2.48588e-09
-6.78545e-08
-1.39889e-07
-1.64425e-07
-8.59587e-08
6.66657e-08
1.52812e-07
7.28545e-08
-1.01684e-07
-1.96117e-07
-5.93705e-08
1.55287e-07
1.57539e-07
2.20309e-08
-2.19059e-08
1.66056e-08
2.43463e-08
-2.42553e-08
-3.86088e-10
9.15315e-08
4.31716e-08
-1.20228e-07
-1.17404e-07
8.56683e-08
1.15334e-07
-1.39588e-07
-2.22532e-07
1.58811e-08
1.65761e-07
9.54117e-08
3.94351e-08
5.88964e-08
3.64982e-08
-3.30713e-08
-6.57224e-08
-3.38958e-08
3.66774e-08
1.04716e-07
1.02221e-07
5.38117e-09
-9.23598e-08
-9.35857e-08
-6.22933e-08
-1.21786e-07
-1.78494e-07
-2.23294e-08
2.47984e-07
2.30657e-07
-1.32112e-07
-3.13033e-07
-4.80873e-08
2.16482e-07
1.34198e-07
-6.74563e-08
-7.43455e-08
4.7425e-08
5.55927e-08
8.02236e-12
-2.13381e-11
-5.39015e-11
-1.28444e-11
1.14464e-11
2.77897e-11
1.2606e-11
-6.53087e-11
-5.93339e-11
8.13497e-12
2.00603e-11
-1.03316e-11
7.27666e-12
5.34238e-11
3.87179e-11
2.02893e-11
1.32386e-13
-9.81056e-11
-1.11868e-10
3.38314e-10
3.21164e-10
-2.01498e-10
1.12993e-10
5.3745e-10
5.48992e-10
4.03624e-10
1.12256e-10
-3.5252e-10
-5.8401e-10
-2.99673e-10
-3.16168e-11
-4.1435e-11
-1.21571e-10
5.43092e-11
2.44009e-10
4.71744e-11
-1.28675e-10
-3.53791e-11
1.92172e-12
4.04794e-12
-2.17734e-10
-1.02711e-09
-5.99852e-10
-8.37637e-11
-4.34624e-11
3.41901e-10
-8.31454e-11
-8.3385e-10
-6.56614e-10
-4.70311e-10
-1.62822e-09
-2.57681e-09
-1.22479e-09
-2.91029e-10
-1.93556e-09
-4.49564e-09
-1.22977e-09
8.77629e-09
5.02521e-09
-8.21729e-09
2.69045e-11
8.09192e-09
3.16754e-09
-7.03893e-10
1.62126e-09
9.98107e-09
1.02656e-08
1.39334e-09
-4.45064e-09
3.28969e-10
4.83545e-09
1.2148e-09
-5.35597e-09
-5.96968e-09
2.63233e-10
3.21482e-09
2.29605e-11
-1.02703e-09
4.53382e-10
6.14136e-10
-6.00132e-10
-5.3487e-09
-3.49474e-09
-1.87679e-09
-1.62715e-09
2.21655e-09
2.13758e-09
-1.91998e-09
8.36087e-10
3.20156e-09
-3.42759e-09
-9.86493e-09
-4.16564e-09
3.22584e-09
-6.07729e-10
-1.78223e-08
-2.68605e-08
4.93552e-09
2.61201e-08
-2.89647e-08
-2.082e-08
5.23817e-08
3.09052e-08
-2.54536e-08
-9.80418e-09
3.43187e-08
3.05067e-08
7.31274e-09
8.32548e-10
8.33297e-09
1.25646e-08
2.85542e-09
-1.15587e-08
-1.75322e-08
-6.85502e-09
4.91867e-09
3.88667e-09
3.15693e-11
2.06314e-09
3.76247e-09
2.62457e-09
-1.30984e-08
-9.18615e-09
-3.44974e-09
-4.64913e-09
2.89272e-09
5.23415e-09
-6.11877e-09
8.63285e-10
1.27762e-08
-5.37157e-11
-1.68673e-08
-4.65831e-09
1.92497e-08
1.51603e-08
-2.67553e-08
-6.75617e-08
-3.29648e-08
2.88604e-08
-7.60517e-08
-8.70832e-08
1.34925e-07
1.11373e-07
-7.32035e-08
-3.52819e-08
8.43018e-08
5.55029e-08
4.00723e-09
1.40408e-08
3.41847e-08
2.88713e-08
9.33401e-10
-2.666e-08
-3.67191e-08
-1.48457e-08
1.4544e-08
1.61608e-08
3.28714e-09
2.73129e-09
1.15276e-08
1.74209e-08
-2.17264e-08
-2.2221e-08
-5.86326e-09
-9.70837e-09
6.46115e-10
1.15482e-08
-1.21801e-08
-1.26361e-08
2.58439e-08
1.69167e-08
-2.16825e-08
-1.12852e-08
4.50354e-08
4.93718e-08
-3.3056e-08
-1.17981e-07
-8.78879e-08
4.89281e-08
-9.78242e-08
-2.80266e-07
1.65546e-07
2.7168e-07
-1.35218e-07
-1.08969e-07
1.77407e-07
1.27576e-07
4.73432e-09
2.17084e-08
6.34607e-08
5.17391e-08
6.50846e-09
-3.48967e-08
-6.11787e-08
-4.5225e-08
1.91299e-08
4.52209e-08
2.0131e-08
7.9557e-10
2.07016e-08
4.72267e-08
-1.76258e-08
-4.79629e-08
-1.33319e-08
-1.42385e-08
-8.82896e-09
1.63374e-08
-4.82863e-09
-4.77573e-08
1.42777e-08
5.03254e-08
-3.63816e-09
-1.63361e-08
7.52193e-08
1.06182e-07
-2.90629e-08
-1.6458e-07
-1.51671e-07
5.35487e-08
7.15963e-11
-4.79322e-07
2.21267e-08
4.50901e-07
-1.74901e-07
-2.51036e-07
2.73446e-07
2.52124e-07
2.69228e-08
6.68704e-09
6.14755e-08
6.17185e-08
1.63311e-08
-2.55829e-08
-6.15962e-08
-8.66827e-08
-1.63902e-08
7.18932e-08
6.418e-08
5.93186e-09
1.85574e-08
6.89431e-08
1.63286e-08
-7.26084e-08
-2.91543e-08
-1.26861e-08
-2.15998e-08
7.98257e-09
1.46206e-08
-6.36843e-08
-5.49897e-08
4.94968e-08
4.06766e-08
1.24908e-08
1.08038e-07
1.41804e-07
-3.83725e-08
-1.85255e-07
-1.55664e-07
5.74315e-08
1.31252e-07
-5.13967e-07
-1.93021e-07
5.32906e-07
-1.88882e-07
-3.76235e-07
3.22855e-07
3.34972e-07
5.01457e-08
-3.09326e-09
3.1864e-08
3.19427e-08
1.19858e-08
-5.82787e-09
-4.53268e-08
-1.08812e-07
-8.82318e-08
4.7606e-08
1.20626e-07
4.981e-08
-5.39763e-09
3.7206e-08
5.86056e-08
-6.41552e-08
-4.60056e-08
-2.78986e-09
-3.22125e-08
-7.18339e-09
3.47844e-08
-2.35669e-08
-1.28174e-07
-4.90339e-08
5.89048e-08
9.94552e-08
1.60704e-07
1.07369e-07
-8.55431e-08
-1.7847e-07
-1.08581e-07
9.07932e-08
2.4247e-07
-3.7682e-07
-3.28784e-07
4.70987e-07
-2.16347e-07
-4.07382e-07
3.37593e-07
3.33465e-07
3.82136e-08
-1.11016e-08
1.26521e-08
3.38451e-09
1.46139e-08
5.40266e-08
8.42123e-10
-1.3729e-07
-1.78681e-07
-4.09887e-08
1.26095e-07
1.3221e-07
-7.74885e-09
-2.60926e-08
4.36622e-08
-2.36735e-08
-2.93224e-08
1.10208e-08
-4.01215e-08
-1.79538e-08
6.92344e-08
5.06629e-08
-1.16543e-07
-1.82954e-07
-2.07418e-08
1.86228e-07
2.29639e-07
3.91308e-08
-1.44584e-07
-1.60331e-07
-4.745e-08
1.16473e-07
3.26707e-07
-1.11225e-07
-3.37708e-07
2.53643e-07
-2.82431e-07
-3.05589e-07
3.37127e-07
2.50676e-07
-4.46644e-09
-2.38898e-08
-1.66166e-09
-1.7373e-08
1.53093e-08
1.31766e-07
1.31096e-07
-9.26083e-08
-2.6137e-07
-1.63858e-07
5.45359e-08
1.81688e-07
5.16342e-08
-3.23419e-08
-4.13942e-09
1.25348e-09
-6.02779e-09
1.17839e-08
-1.71256e-08
-2.04948e-08
8.39831e-08
1.65755e-07
-6.47905e-09
-2.35342e-07
-1.45455e-07
1.74546e-07
2.75541e-07
3.97961e-09
-1.75645e-07
-1.39882e-07
-3.36911e-08
9.79712e-08
3.7353e-07
2.23486e-07
-2.45794e-07
-7.50741e-08
-3.19913e-07
-7.9585e-08
2.65147e-07
9.10198e-08
-4.88734e-08
-2.98465e-08
-1.28718e-08
-3.43911e-08
1.16263e-08
1.69879e-07
2.20062e-07
6.98514e-09
-2.42072e-07
-2.41181e-07
-5.33936e-08
1.32929e-07
1.06006e-07
1.42605e-08
1.39036e-08
-7.19241e-09
-3.08216e-08
5.57575e-09
4.19138e-08
5.40031e-09
2.06353e-08
2.33572e-07
2.28007e-07
-1.43215e-07
-2.71666e-07
6.38537e-08
3.00777e-07
1.16015e-07
-1.33801e-07
-2.37951e-07
-1.36718e-07
8.36791e-08
3.81795e-07
4.74705e-07
-9.96411e-08
-3.66552e-07
-2.35285e-07
1.15761e-07
4.09343e-08
-7.40435e-08
-4.11128e-08
-1.42322e-08
-1.85862e-08
-5.15566e-08
1.28764e-08
2.17655e-07
2.61416e-07
1.74672e-08
-2.15954e-07
-2.23914e-07
-1.04103e-07
9.32287e-09
5.21257e-08
2.10077e-08
1.3002e-07
-1.46862e-08
-8.66839e-08
1.54986e-08
9.26529e-08
4.90426e-08
-2.2846e-08
1.43514e-07
4.01859e-07
1.22638e-07
-3.5615e-07
-1.36882e-07
3.56001e-07
3.36473e-07
-1.2282e-07
-4.88043e-07
-2.7782e-07
1.37112e-07
3.24244e-07
4.75849e-07
1.41662e-08
-4.42107e-07
-7.00501e-08
1.16386e-07
-1.66533e-07
-1.02088e-07
7.5233e-09
1.31191e-09
-2.47274e-08
-8.1391e-08
-1.01733e-08
2.81267e-07
3.61586e-07
6.26656e-09
-2.77016e-07
-2.19408e-07
-8.39935e-08
-8.32248e-08
-1.21705e-07
-5.16495e-08
2.62329e-07
4.32558e-08
-1.15946e-07
3.28091e-08
1.00213e-07
5.08314e-08
-1.8436e-08
4.9581e-08
4.03641e-07
4.21426e-07
-3.00326e-07
-3.94984e-07
3.59258e-07
5.08462e-07
-2.18737e-07
-7.34411e-07
-3.28249e-07
2.25241e-07
1.63789e-07
1.9744e-07
8.73884e-08
-2.16327e-07
2.80507e-08
1.09537e-08
-1.45101e-07
-2.27176e-08
1.62996e-08
-4.34984e-09
-2.07062e-08
-9.73994e-08
-8.48478e-08
2.54703e-07
5.11816e-07
1.20836e-07
-3.51439e-07
-3.00914e-07
-7.82947e-08
-8.96064e-08
-2.67055e-07
-8.88461e-08
2.76829e-07
1.18699e-07
-7.11186e-08
2.58633e-08
5.54955e-08
2.38795e-08
-6.25437e-10
-1.72458e-09
2.72173e-07
6.13165e-07
-6.50431e-08
-5.85083e-07
2.26218e-07
5.34942e-07
-3.42901e-07
-8.1365e-07
-2.59736e-07
2.74921e-07
-1.083e-08
-1.84601e-07
9.68037e-08
1.36337e-07
9.80284e-08
1.23326e-08
-4.26069e-08
-2.56879e-08
-1.38625e-08
-6.29891e-11
1.442e-08
-2.94386e-08
-1.25191e-07
6.8205e-08
5.20525e-07
3.52261e-07
-2.92808e-07
-4.24937e-07
-1.49586e-07
-6.89532e-08
-2.44213e-07
-2.63431e-08
2.43565e-07
1.55484e-07
-5.42394e-08
-6.36558e-08
-1.51158e-08
1.0435e-09
6.69235e-09
1.42646e-09
1.1666e-07
5.19992e-07
1.77714e-07
-5.28098e-07
2.7675e-08
3.6038e-07
-3.52031e-07
-6.06672e-07
-1.25106e-07
2.3427e-07
-8.39206e-08
-3.94689e-07
-2.98928e-08
3.0288e-07
2.34432e-07
3.10603e-08
-1.14707e-07
-7.74676e-08
4.94194e-08
9.30555e-08
6.65533e-08
4.12571e-08
-3.69669e-08
-5.54208e-08
3.38477e-07
5.1451e-07
-8.79007e-08
-4.85209e-07
-2.67466e-07
-9.05435e-08
-1.48947e-07
3.68429e-08
1.94896e-07
9.89703e-08
-4.3707e-08
-4.21479e-08
-3.71886e-08
-3.70535e-08
-5.50154e-09
8.4999e-09
6.02744e-08
3.14737e-07
2.1046e-07
-3.23293e-07
-1.17681e-07
1.47449e-07
-1.5972e-07
-2.89392e-07
-5.81194e-08
1.31357e-07
-9.29155e-08
-3.89022e-07
-1.20845e-07
3.04477e-07
2.48856e-07
-1.11304e-07
-2.33062e-07
7.12301e-09
2.24131e-07
1.93052e-07
3.46156e-08
-6.86395e-08
-5.93391e-09
8.95156e-08
2.61683e-07
5.05624e-07
1.43073e-07
-4.17139e-07
-3.66585e-07
-1.42978e-07
-9.6447e-08
4.21762e-08
8.02144e-08
-3.69642e-09
3.14546e-08
9.89469e-08
-1.02359e-08
-1.10341e-07
-5.01029e-08
2.8297e-08
7.61624e-08
2.10876e-07
1.68013e-07
-1.92771e-07
-1.53516e-07
1.27637e-07
3.89785e-08
-1.79426e-07
-1.39175e-07
3.59262e-08
-5.11653e-08
-3.0965e-07
-1.29249e-07
2.85516e-07
1.62278e-07
-2.66636e-07
-2.17063e-07
1.58668e-07
2.81684e-07
1.72944e-07
6.33244e-08
-9.23234e-08
-2.13031e-07
5.32105e-08
3.92617e-07
4.90513e-07
2.89062e-07
-2.20975e-07
-4.0542e-07
-2.13818e-07
-7.52707e-08
1.59507e-08
4.92185e-09
-4.81892e-08
2.97136e-08
1.1477e-07
3.80044e-08
-1.01824e-07
-1.09939e-07
1.80034e-08
1.38455e-07
1.88745e-07
6.91274e-08
-1.77639e-07
-7.11323e-08
2.06213e-07
6.62378e-08
-2.31206e-07
-2.06999e-07
2.16813e-08
3.21138e-08
-1.71924e-07
-8.61851e-08
2.13301e-07
7.64945e-08
-2.40108e-07
-7.87315e-08
1.93325e-07
1.41767e-07
5.22531e-08
8.39059e-08
3.069e-08
-3.14812e-07
-3.3229e-07
3.63609e-07
6.16075e-07
2.80441e-07
-2.98539e-08
-2.04363e-07
-1.99964e-07
-8.73275e-08
-2.67822e-08
-7.40577e-08
-8.92656e-08
2.21901e-08
1.50068e-07
1.13557e-07
-1.0458e-07
-2.51843e-07
-7.61186e-08
2.13836e-07
2.31643e-07
-4.88419e-09
-1.3402e-07
6.5787e-08
1.69883e-07
-6.36168e-08
-2.21155e-07
-1.07939e-07
5.08524e-08
5.60689e-08
-3.54843e-08
-3.67153e-09
7.53819e-08
-2.52097e-08
-7.86886e-08
2.44384e-08
4.79574e-08
1.45771e-08
-5.44695e-09
3.04568e-08
4.55847e-08
-2.67351e-07
-5.77837e-07
4.11245e-08
7.13179e-07
4.08505e-07
-2.00168e-08
-7.55163e-08
-4.91049e-08
-3.6033e-08
9.09403e-08
-5.26113e-08
-1.88529e-07
-6.44165e-08
2.10338e-07
2.16589e-07
-1.07629e-07
-4.38356e-07
-3.05043e-07
2.53955e-07
3.8827e-07
2.41555e-08
-8.82465e-08
5.90441e-08
3.77599e-08
-8.08894e-08
-7.95366e-08
-2.17025e-08
1.5025e-08
2.63456e-08
-1.96541e-09
-1.23123e-08
1.41244e-08
9.81136e-09
-1.62165e-08
-3.41725e-08
-5.1696e-08
-3.68382e-08
7.08374e-08
1.63062e-07
-2.14167e-08
-4.20387e-07
-5.88049e-07
-1.08593e-07
5.66902e-07
4.53617e-07
-3.1052e-08
-8.22179e-08
9.07892e-08
1.43323e-07
1.75552e-07
5.11592e-09
-1.44396e-07
-6.17714e-08
1.3631e-07
1.32097e-07
-4.80971e-08
-2.86682e-07
-3.99649e-07
3.26296e-08
4.98657e-07
1.77772e-07
-2.70742e-07
-1.67925e-07
9.20391e-08
1.17607e-07
1.89009e-08
-3.17257e-08
-1.66748e-08
2.32129e-08
1.44784e-08
-3.20721e-08
-1.9982e-08
1.45701e-08
-2.19523e-08
-7.65531e-08
-6.10868e-08
2.33994e-08
1.34137e-07
1.59912e-07
-7.89922e-08
-4.92324e-07
-5.75821e-07
-2.71527e-08
5.36279e-07
3.74788e-07
-8.41689e-08
-1.25442e-07
1.10891e-07
2.34824e-07
2.10992e-07
2.73992e-08
-7.85004e-08
-2.04912e-08
3.10448e-08
-1.40643e-08
-2.10813e-08
-2.15691e-08
-1.44126e-07
-9.09373e-08
2.71147e-07
2.06311e-07
-2.83661e-07
-2.59306e-07
1.57881e-07
2.27347e-07
3.47641e-08
-4.94989e-08
-3.20916e-08
7.8618e-09
2.7997e-08
-5.82116e-09
-8.53198e-09
5.46709e-08
6.88389e-08
-2.82667e-09
-7.54106e-08
-7.86591e-08
-9.00807e-09
6.5e-08
1.57267e-08
-1.97614e-07
-4.04357e-07
-2.15552e-07
3.44682e-07
4.12191e-07
-7.69117e-08
-2.53447e-07
1.9951e-08
2.50798e-07
8.5828e-08
2.92435e-08
-1.3455e-09
-1.00258e-08
-5.50561e-08
-5.99914e-08
3.75342e-08
7.56439e-08
8.03242e-11
3.29291e-08
1.85837e-07
1.05627e-07
-1.50583e-07
-1.3966e-07
3.71892e-09
-8.27075e-09
-1.31464e-08
5.07934e-08
4.60267e-08
-5.05685e-09
-1.50544e-08
9.53308e-09
6.06373e-08
1.05142e-07
4.20655e-08
-1.03953e-07
-2.10114e-07
-2.17357e-07
-7.20987e-08
1.52201e-07
1.64905e-07
-7.20605e-08
-1.60849e-07
-3.07372e-09
1.39507e-07
1.25957e-07
-1.36921e-08
-9.95083e-08
-2.54277e-08
7.80619e-08
3.36089e-08
8.61236e-09
-5.41366e-09
-4.86805e-08
-6.36061e-08
1.98851e-08
1.01717e-07
1.72579e-08
-1.27021e-07
-6.65982e-08
1.26667e-07
1.43964e-07
-9.78031e-10
-6.40894e-08
-5.27491e-08
-3.62178e-08
2.39071e-08
6.89773e-08
4.15738e-08
-7.3089e-09
-1.97903e-08
1.90864e-09
1.64418e-08
5.79856e-09
-1.43127e-08
-6.49073e-08
-1.58837e-07
-1.80295e-07
-1.76249e-08
1.87738e-07
1.17385e-07
-2.164e-07
-2.98201e-07
4.80641e-08
2.9912e-07
1.73487e-07
-3.42132e-08
-5.48888e-08
3.78054e-08
7.13814e-08
1.06959e-07
1.38165e-08
2.78568e-09
7.88701e-09
-2.4994e-08
-2.52101e-09
7.32024e-08
2.81551e-08
-1.23882e-07
-1.35621e-07
1.71163e-08
1.02256e-07
4.54204e-08
-1.36763e-08
-2.24996e-09
1.98589e-08
8.2765e-09
-1.28573e-08
-5.39448e-09
3.89958e-08
7.68441e-08
3.65101e-08
-7.11008e-08
-1.12416e-07
-2.37613e-08
3.11448e-08
-1.04836e-07
-2.434e-07
-6.62783e-08
2.71556e-07
2.39631e-07
-1.73655e-07
-3.57406e-07
-6.88472e-08
2.67294e-07
2.44199e-07
-3.29462e-08
-1.70028e-07
-3.00808e-08
1.32713e-07
6.44826e-12
-5.34052e-11
1.82945e-11
3.7238e-11
-1.93147e-11
-2.34747e-11
1.48382e-11
1.49526e-11
-2.52652e-11
-3.95353e-11
-1.71664e-11
2.59627e-11
6.90865e-11
-6.97598e-12
-5.80277e-11
6.61808e-11
1.78051e-10
2.26424e-10
3.01132e-10
2.59818e-11
4.43303e-11
1.91926e-10
9.81692e-11
3.29288e-10
3.69105e-10
-1.89416e-11
-3.98345e-10
-4.66468e-10
-2.8902e-10
-1.12671e-10
-3.95143e-11
2.36467e-11
1.18841e-10
1.12736e-10
-3.32346e-11
8.17048e-13
4.32398e-11
-1.96731e-11
-5.56908e-11
-7.08696e-12
-1.33607e-09
-2.73942e-10
1.21923e-09
-1.57247e-10
-6.49761e-10
3.12278e-10
6.43145e-10
2.2694e-10
-1.59085e-10
-5.51419e-10
-1.33544e-09
-1.32085e-09
-6.53203e-10
-2.10906e-09
-4.22285e-09
-3.68742e-09
-4.4714e-10
6.2315e-09
1.4458e-08
3.94288e-09
-8.98764e-09
4.22094e-09
1.15677e-08
1.0396e-08
8.02203e-09
-7.59384e-10
-8.2476e-09
-8.18409e-09
-3.53602e-09
-6.25935e-10
-6.85675e-10
-6.27732e-10
1.90004e-10
1.40518e-09
-2.44569e-10
-4.02757e-10
2.21722e-09
4.96231e-10
-1.72198e-09
-1.29254e-09
-4.31548e-09
5.70437e-10
5.53266e-09
4.95425e-11
-1.78484e-09
1.32179e-09
1.42176e-09
-5.88655e-10
-1.04976e-09
6.81052e-10
-8.1658e-11
-3.34826e-09
-4.842e-09
-6.44862e-09
-9.9633e-09
-1.21303e-08
-8.14311e-09
7.05128e-09
3.19842e-08
1.47659e-08
-3.83251e-08
-5.20964e-09
4.36025e-08
3.17094e-08
1.71588e-08
1.97549e-09
-1.56915e-08
-1.38172e-08
1.47582e-10
4.71591e-09
-2.65207e-09
-7.63003e-09
-6.27459e-09
-1.52468e-09
2.33814e-09
5.38222e-10
4.97458e-09
3.45857e-09
-6.55701e-09
-6.2604e-09
-9.14442e-09
2.2991e-09
1.16032e-08
-1.33839e-11
-5.34473e-09
2.44352e-09
3.85538e-09
-3.93693e-10
-2.63709e-09
7.56937e-10
2.5409e-09
-2.75217e-09
-6.49311e-09
-6.1019e-09
-9.92532e-09
-1.66655e-08
-1.66911e-08
-1.49612e-09
3.76061e-08
2.25289e-08
-8.43151e-08
-3.93159e-08
9.54247e-08
7.38859e-08
2.2229e-08
6.3381e-09
-2.15948e-08
-1.06038e-08
2.26936e-08
2.52656e-08
-5.70573e-09
-2.99142e-08
-2.86459e-08
-1.31021e-08
5.68874e-09
8.68185e-09
1.13302e-08
1.28369e-08
-1.22855e-08
-1.76013e-08
-2.15905e-08
4.49607e-09
1.84794e-08
1.43488e-09
-1.12802e-08
3.87392e-09
9.71178e-09
2.60869e-09
-4.86756e-09
-3.19317e-09
5.06521e-09
1.28726e-09
-7.22843e-09
-7.09406e-09
-1.20079e-08
-2.08271e-08
-2.21935e-08
-1.21739e-08
4.11155e-08
6.14692e-08
-1.18659e-07
-1.41554e-07
1.36544e-07
1.54708e-07
2.82602e-08
1.95065e-08
-1.65691e-08
-1.03845e-08
4.61876e-08
5.35291e-08
-1.2825e-09
-5.06031e-08
-5.55321e-08
-3.39787e-08
2.03014e-09
2.40287e-08
2.54668e-08
3.12556e-08
-1.20032e-08
-3.91865e-08
-5.33521e-08
1.05597e-09
3.11328e-08
1.17899e-08
-1.66839e-08
2.58018e-09
1.61605e-08
9.04969e-09
-5.7983e-09
-1.48499e-08
3.21312e-09
1.48696e-08
1.85337e-09
-6.94232e-09
-1.4809e-08
-2.79206e-08
-3.6215e-08
-3.09257e-08
3.67026e-08
1.17613e-07
-7.40431e-08
-2.8357e-07
7.98191e-08
2.62928e-07
4.48221e-08
1.96305e-08
7.95073e-09
-1.42182e-08
5.19698e-08
7.72126e-08
1.07458e-08
-5.70155e-08
-6.50685e-08
-4.78578e-08
-1.95488e-08
2.57348e-08
4.71201e-08
5.93765e-08
4.10614e-09
-6.88679e-08
-1.07029e-07
-1.75573e-08
5.18673e-08
3.05233e-08
-1.92247e-08
-1.85737e-09
2.18006e-08
1.91122e-08
5.31768e-10
-2.465e-08
-9.68282e-09
2.6959e-08
1.88431e-08
-3.70688e-09
-1.34041e-08
-3.4787e-08
-7.01266e-08
-7.48505e-08
3.54782e-08
1.8036e-07
2.24981e-08
-3.63844e-07
-4.72225e-08
3.38179e-07
6.47608e-08
-2.17024e-08
3.71827e-08
5.99327e-09
4.23455e-08
6.50313e-08
4.23433e-09
-4.78606e-08
-3.5647e-08
-2.85325e-08
-4.75284e-08
-1.47842e-08
4.87995e-08
9.13155e-08
4.2657e-08
-8.46348e-08
-1.54481e-07
-5.32627e-08
6.52082e-08
5.67315e-08
-1.25671e-08
-9.1971e-09
2.26846e-08
2.42112e-08
1.34532e-08
-9.20843e-09
-1.56593e-08
2.34122e-08
3.42221e-08
3.33313e-09
-8.04551e-09
-3.98834e-08
-1.22063e-07
-1.57073e-07
1.40095e-08
2.53306e-07
1.44838e-07
-3.42684e-07
-1.52153e-07
3.20552e-07
5.72019e-08
-7.65071e-08
4.50736e-08
4.14516e-08
4.1022e-08
3.61867e-08
-2.37296e-08
-3.81926e-08
4.10581e-08
4.62694e-08
-8.59805e-08
-1.31086e-07
-2.32098e-08
9.60175e-08
8.89848e-08
-6.57313e-08
-1.51373e-07
-9.04202e-08
5.89477e-08
7.94465e-08
-3.6319e-09
-1.21524e-08
2.44878e-08
2.09679e-08
9.25017e-09
2.038e-08
2.13305e-08
2.20915e-08
2.65908e-08
-7.46821e-09
-2.47333e-08
-4.54239e-08
-1.60429e-07
-2.23003e-07
-1.40884e-08
3.0054e-07
2.8725e-07
-2.30874e-07
-2.20404e-07
1.86162e-07
5.42675e-09
-9.19223e-08
4.76468e-08
6.87259e-08
5.15817e-08
2.04945e-08