/*--------------------------------*- C++ -*----------------------------------*\
| =========                 |                                                 |
| \\      /  F ield         | OpenFOAM: The Open Source CFD Toolbox           |
|  \\    /   O peration     | Version:  5.0                                   |
|   \\  /    A nd           | Web:      www.OpenFOAM.org                      |
|    \\/     M anipulation  |                                                 |
\*---------------------------------------------------------------------------*/
FoamFile
{
    version     2.0;
    format      ascii;
    class       volScalarField;
    location    "50.4676134421789371";
    object      Cwt;
}
// * * * * * * * * * * * * * * * * * * * * * * * * * * * * * * * * * * * * * //

dimensions      [0 1 -2 1 0 0 0];

internalField   nonuniform List<scalar> 
60000
(
4.05132e-05
9.04377e-05
0.000138968
0.000142623
9.69919e-05
4.22049e-05
-3.30079e-05
-0.000104124
-0.000146729
-0.000121558
-1.33372e-05
8.93401e-05
9.98661e-05
8.22424e-05
0.000111298
0.0001586
0.000182269
0.000178834
7.92982e-06
-0.000355937
-0.000579223
-0.000529876
-0.000411241
-0.000273977
-0.000227335
-0.000329421
-0.000432336
-0.000278585
0.000185448
0.000534298
0.000482983
0.000277185
0.000181829
0.000168274
-1.92594e-05
-0.000376284
-0.000464569
-0.00030757
-0.000134305
-2.00589e-05
0.000957196
0.00120412
0.000958321
0.000684682
0.000502665
8.18641e-05
-0.000604115
-0.00121896
-0.00131808
-0.00074589
0.000338825
0.00133484
0.00151719
0.00111567
0.000827953
0.000701645
0.000639126
0.000620491
-0.000364906
-0.00321671
-0.00563047
-0.00471222
-0.00180947
0.000408162
0.00087903
1.28424e-05
-0.00130787
-0.00177409
-0.000171519
0.00234203
0.00309824
0.00198347
0.000839741
0.000422639
-0.000276094
-0.00193424
-0.00281804
-0.00201212
-0.000708185
0.000297011
0.000403813
0.000928243
0.000756108
0.000304818
0.000229095
0.000218467
-0.000162171
-0.000707881
-0.000958893
-0.000734601
6.38117e-06
0.000922878
0.00127025
0.000907451
0.000488484
0.000394373
0.0006026
0.000950622
0.000618294
-0.00154496
-0.00417825
-0.00360245
-0.00053967
0.0013948
0.00140767
0.000755466
-6.72206e-05
-0.000922371
-0.000929705
0.000237936
0.00127089
0.00135404
0.000942257
0.000558618
2.0106e-05
-0.000811297
-0.00131791
-0.00128054
-0.000950376
-0.000358116
-0.00010352
0.00020827
0.0002338
6.81418e-05
2.07878e-06
5.69446e-05
5.67805e-05
-8.28544e-05
-0.000222177
-0.000271267
-0.000121287
0.00024069
0.000410382
0.000207255
6.87419e-06
5.8952e-05
0.000317763
0.000616141
0.000563173
-0.000309735
-0.00126116
-0.000560234
0.00087672
0.000825915
8.95211e-05
-2.85351e-05
0.000272758
0.000314954
-1.80345e-05
-0.000112969
9.58325e-05
0.000223133
0.000280864
0.000359067
0.000244917
-0.000152427
-0.000350749
-0.000287426
-0.000321401
-0.000342468
-6.24298e-05
1.2091e-05
7.69656e-06
-2.29345e-05
-2.15851e-05
-1.36781e-05
2.10279e-05
3.24915e-05
-1.4327e-05
-6.76215e-05
-6.50613e-05
8.69546e-05
0.000139703
-6.38476e-05
-0.000162883
-2.16396e-05
0.000202519
0.000414127
0.000435516
-0.000132417
-0.00044924
0.000443494
0.00103886
7.20723e-05
-0.000621768
-0.00038193
2.42215e-05
0.000339857
0.000312988
2.06295e-05
-9.74603e-05
-7.7553e-05
-4.51533e-05
5.4727e-05
0.000182396
7.39222e-05
-8.73641e-05
-4.23755e-05
-1.51959e-05
-7.63036e-05
9.61442e-06
1.62911e-05
-1.75698e-05
-4.64675e-05
-2.83061e-05
-2.21786e-05
-1.28704e-05
1.86677e-05
2.1757e-05
-3.13065e-06
-3.24627e-05
3.00883e-05
9.87025e-05
-6.34472e-05
-0.000189837
-6.34649e-05
0.000121139
0.000289292
0.000433333
9.22968e-05
-0.00027816
0.000608789
0.000946076
-0.000347803
-0.000870839
-0.000384955
-8.66911e-05
2.44197e-05
0.000171364
0.000105037
-4.33234e-05
-7.52145e-05
-6.51389e-05
-5.6612e-05
1.96678e-05
6.6864e-05
-1.11598e-05
-1.55341e-05
4.02773e-05
2.81831e-05
2.27021e-05
2.1029e-05
3.44537e-06
-2.12185e-05
-1.838e-05
-1.38252e-05
-1.61398e-05
-2.19417e-06
1.28637e-05
5.59096e-06
-1.35484e-05
-1.12592e-06
4.29829e-05
-2.27727e-05
-0.00010685
-5.85541e-05
2.48372e-05
0.000140011
0.000265033
0.000225122
-0.000123624
0.000517055
0.000656421
-0.00052389
-0.000713449
-0.000220387
-2.6602e-05
-3.18287e-05
2.28841e-06
5.41722e-05
1.70726e-05
-1.79351e-05
-1.85947e-05
-2.95725e-05
-2.89395e-05
9.00036e-06
5.52041e-06
-1.40397e-05
1.12807e-05
2.96866e-05
1.19277e-05
1.03673e-05
4.70655e-06
-4.56947e-06
-5.29187e-06
-3.01809e-06
-6.17838e-06
-5.70577e-06
2.15711e-06
2.24441e-06
-8.7197e-06
-3.27605e-06
1.38928e-05
-1.60041e-05
-3.7587e-05
-8.58221e-06
-2.24577e-05
2.3927e-05
7.2326e-05
0.000124546
1.76888e-05
0.000359889
0.000294378
-0.000418482
-0.000381918
-9.13351e-05
-8.1583e-06
1.3441e-06
-1.00283e-05
3.93573e-09
7.00885e-06
-2.24327e-06
-3.46102e-07
-2.29305e-07
-1.0799e-05
-8.36619e-06
1.38917e-06
-2.71539e-06
-2.14334e-06
7.89087e-06
3.21434e-06
3.55474e-06
1.95701e-06
-7.2004e-07
-1.28093e-06
-3.01225e-07
-6.20227e-07
-1.87956e-06
-5.57947e-07
5.04976e-07
-5.40501e-06
-2.1269e-06
4.91933e-06
-1.09101e-05
-8.12473e-06
1.71017e-05
-1.32266e-05
-1.68134e-05
-1.76425e-06
-1.13449e-05
3.24768e-05
0.000203853
8.78899e-05
-0.00020541
-0.000150889
-3.44116e-05
-4.51085e-06
4.09423e-07
7.26492e-07
-1.46919e-06
5.96611e-08
-1.32629e-06
-2.75242e-06
1.07503e-06
7.46569e-07
-2.91433e-06
-1.23906e-06
3.32873e-07
-1.1453e-06
4.6978e-07
4.0706e-07
1.11768e-06
7.5311e-07
8.00671e-08
-3.26194e-07
-2.73308e-07
-1.81697e-08
-3.49513e-07
-4.45332e-07
1.62152e-07
-2.39246e-06
-7.43461e-07
1.38059e-06
-5.72777e-06
-2.89071e-07
1.18019e-05
1.39033e-06
-1.11873e-05
-3.73733e-06
-3.09289e-05
1.23181e-06
7.9179e-05
1.58627e-05
-6.56045e-05
-4.08245e-05
-1.07682e-05
-2.26061e-06
-5.22845e-07
1.66497e-07
1.95417e-07
-2.6482e-09
4.65408e-07
-4.89507e-07
-1.12778e-06
7.1081e-08
-8.4493e-08
-6.46584e-07
-5.95074e-08
-3.04231e-08
-1.06541e-07
-3.53922e-08
1.18439e-07
1.17966e-07
-2.40269e-08
-3.57355e-08
-2.55271e-09
2.12873e-08
-4.71233e-08
-1.11637e-07
3.72185e-08
-7.40642e-07
-3.50254e-07
2.72335e-07
-2.12049e-06
1.23152e-07
3.89836e-06
2.77125e-06
-1.91068e-06
-7.06934e-07
-7.12899e-06
-5.40695e-06
1.39865e-05
4.79518e-07
-1.06833e-05
-5.95153e-06
-2.44072e-06
-6.62696e-07
-3.65738e-07
-5.6547e-08
3.87599e-09
-3.57201e-09
1.50887e-08
9.68042e-08
-2.84682e-08
-6.36368e-08
2.69496e-09
-2.9732e-08
-8.69473e-09
1.17744e-07
2.83653e-08
-1.33549e-08
6.03456e-08
1.8762e-08
-5.52427e-09
-3.42132e-09
-2.84139e-10
1.38352e-09
6.27555e-09
-2.02651e-08
-8.39859e-09
-4.77301e-07
-7.41265e-08
2.92962e-07
-5.53081e-07
-2.12914e-08
7.83599e-07
8.53375e-07
1.25285e-07
-2.10953e-07
1.20533e-06
-5.69924e-07
-1.3912e-06
-6.65934e-07
5.36762e-07
2.62474e-07
-7.97969e-07
-4.51157e-07
-8.73428e-09
-1.00733e-10
-2.60711e-10
-2.41418e-10
-6.21719e-10
3.31996e-10
1.32573e-09
-1.21281e-10
-3.88954e-10
-1.5197e-09
-2.51907e-10
3.76188e-09
-1.0798e-08
4.67492e-10
2.94236e-09
4.18773e-10
-2.76417e-10
-4.93543e-11
-4.25188e-12
-2.89019e-13
-2.85695e-11
1.56178e-09
-3.79476e-10
-4.11744e-08
-5.30659e-08
3.77226e-08
2.06302e-08
1.097e-07
1.08188e-07
-6.93303e-09
6.31094e-11
-3.07868e-07
8.29409e-07
1.21683e-06
-1.19186e-06
-5.52642e-07
7.47982e-07
4.86175e-09
-3.20716e-07
-1.98237e-08
-5.35183e-10
-8.13354e-14
2.2858e-12
1.0562e-12
3.41237e-12
-1.90526e-12
-8.58622e-12
1.25227e-13
2.07778e-12
-2.23369e-12
-1.60255e-11
5.30701e-11
-3.66842e-10
-4.07705e-12
2.17144e-11
9.90561e-12
-2.30896e-12
-2.56917e-13
-2.63423e-14
-1.05119e-15
3.10699e-13
-9.10479e-12
9.05523e-11
-8.31067e-10
6.64115e-09
6.0684e-09
-6.61121e-09
6.24946e-09
1.46109e-09
-9.72909e-10
-2.88381e-09
-2.22531e-09
-8.17013e-08
1.62344e-07
4.60281e-08
5.76639e-09
2.03148e-08
-2.23349e-09
-2.40898e-10
-1.07209e-11
-3.14174e-13
-7.16048e-14
-1.34229e-14
-1.13313e-15
-9.78782e-15
5.7634e-15
4.31184e-14
1.37478e-15
-7.75197e-15
-3.31993e-15
-6.51315e-14
3.50541e-13
-1.69829e-12
-4.53195e-14
4.38031e-14
1.34724e-13
1.39826e-14
1.50588e-15
7.53377e-18
-6.24807e-17
8.36128e-17
1.58618e-14
-2.1936e-13
-8.7914e-13
-3.50448e-13
-3.58951e-10
-3.45052e-10
8.0605e-11
1.28049e-11
-9.74492e-13
-1.06213e-11
-1.71031e-10
-5.53733e-10
-1.86517e-09
1.64655e-10
2.58953e-10
5.73036e-12
-3.94463e-11
-7.23732e-12
-5.21692e-13
-1.53919e-14
1.40611e-16
3.17595e-17
9.33718e-18
6.793e-17
-3.8236e-17
-1.16831e-16
1.27207e-16
2.22216e-17
-9.57278e-17
-2.26057e-16
1.74353e-15
-4.80888e-15
-1.59217e-16
-1.28573e-16
5.09987e-16
1.09944e-16
-4.71032e-18
-4.57968e-19
-1.53356e-17
-2.39722e-18
2.06346e-17
1.74697e-16
-1.15114e-15
3.78665e-14
-8.42525e-13
-4.77659e-12
1.10672e-13
-3.63491e-14
-1.35044e-14
-3.40837e-14
8.49508e-13
3.01368e-12
7.54622e-12
-2.43956e-13
4.67679e-12
1.47257e-12
-3.74415e-13
-7.76312e-14
-6.16172e-15
-2.10887e-16
-2.40115e-17
-6.7035e-17
2.64656e-17
5.24092e-17
-6.22337e-17
-4.96676e-19
-7.16872e-18
-6.51185e-17
9.15612e-17
7.31585e-17
1.59866e-17
-6.55495e-17
-2.15427e-17
-6.94921e-18
9.82787e-18
-1.73924e-19
6.40416e-18
-2.20521e-18
-6.68573e-18
-1.62584e-18
1.3722e-18
7.00051e-18
5.77242e-18
3.15706e-17
7.04745e-16
-4.22513e-14
-1.29789e-14
-1.89503e-15
-8.91302e-17
6.7375e-17
-1.46378e-15
-5.64449e-15
-1.12835e-14
-2.4995e-15
3.09774e-14
1.9536e-14
-3.40256e-15
-7.00811e-16
-7.24366e-17
-1.74061e-17
2.39962e-18
-2.15216e-17
4.32675e-18
1.31558e-17
3.07979e-18
1.57049e-17
3.65446e-18
-9.58213e-17
3.23179e-18
8.92762e-17
-1.99826e-17
7.1754e-18
1.756e-20
-4.01641e-18
-2.64734e-18
4.56913e-19
1.44896e-17
-1.60116e-17
-1.36185e-17
1.4273e-17
3.29125e-18
1.95375e-18
-3.99819e-18
-3.85863e-18
2.28592e-17
-3.02664e-16
-1.47649e-16
-1.40832e-17
-5.02187e-18
2.14449e-18
7.88524e-18
1.70517e-17
1.05245e-18
-3.1114e-17
1.31993e-16
1.21341e-16
-2.9995e-17
-1.22114e-17
1.36971e-17
1.26234e-18
6.94715e-19
-1.01343e-17
-1.78492e-17
6.81031e-18
1.3247e-17
-2.99068e-18
-2.96248e-17
-5.51262e-17
4.04966e-17
5.0181e-17
-1.03266e-17
8.0491e-18
4.35039e-18
-3.50428e-18
-1.14275e-17
2.85837e-18
1.22357e-17
-2.22302e-17
-2.82991e-19
3.00519e-17
-6.36246e-18
-1.15384e-17
-3.08083e-19
4.51924e-18
-2.36265e-18
4.27391e-18
-7.06611e-18
-4.03564e-18
1.0133e-17
-6.56592e-18
-1.49024e-17
5.93138e-18
3.20262e-17
2.02453e-17
-8.09451e-18
-1.50831e-17
-1.0362e-17
1.74756e-18
5.73477e-18
-1.51667e-17
-5.46322e-18
1.7286e-17
3.132e-17
-3.46029e-17
4.21735e-18
3.25004e-17
2.61781e-18
-8.47116e-17
-4.85906e-17
9.10954e-17
8.65166e-18
-1.17746e-17
1.02237e-17
-4.80663e-18
-6.93717e-18
4.42489e-18
1.19341e-17
4.28314e-17
-3.92647e-20
-4.57431e-17
-2.08016e-17
-1.41461e-17
2.7608e-17
8.1132e-18
-1.28726e-17
2.45961e-17
-1.11015e-17
-1.45512e-17
4.96105e-18
3.13932e-18
-6.25294e-18
-1.7529e-18
7.24403e-18
7.91102e-19
3.46451e-19
2.67267e-19
7.8352e-19
1.3419e-17
1.21707e-18
3.47136e-18
-6.20091e-18
-5.27225e-18
5.20938e-19
-1.43042e-17
-7.76411e-17
-6.25752e-18
5.59665e-17
4.13928e-17
-4.79912e-17
-4.07705e-17
4.38846e-17
1.27732e-17
-1.08066e-17
1.66747e-17
-2.96187e-17
-7.74394e-18
1.39406e-17
1.61557e-18
9.76785e-19
3.22688e-17
-5.90256e-18
-2.31068e-17
1.29989e-17
8.44625e-18
9.19213e-18
-9.8526e-18
-2.7367e-17
-5.4197e-18
3.34447e-18
-3.00987e-19
-3.36815e-18
-2.17851e-18
2.71629e-18
-2.95928e-18
-1.43407e-18
4.15448e-18
6.39188e-18
1.61076e-18
2.87045e-18
-4.19704e-19
-9.90824e-18
-8.64789e-19
1.73064e-17
2.9274e-17
-3.4772e-17
-8.58493e-17
2.728e-18
6.47344e-17
3.90474e-17
-3.88258e-17
4.76874e-18
1.60557e-17
3.23454e-17
1.17251e-17
-1.05072e-17
-5.91912e-18
-2.15066e-18
-3.13505e-18
2.94763e-18
7.70648e-18
-1.63406e-17
-1.97023e-18
2.3579e-17
1.24873e-17
-3.45677e-17
-4.17437e-17
2.65742e-17
2.00946e-17
-4.66419e-18
-6.28527e-18
3.91973e-19
1.66937e-18
-3.88434e-18
9.80959e-18
5.70664e-18
3.16348e-19
4.25095e-18
-5.00841e-18
-1.39886e-18
-2.89215e-19
-1.86092e-18
1.10181e-18
-1.02099e-17
1.54968e-17
-2.96548e-17
-4.40364e-17
2.27294e-17
3.05564e-17
4.31524e-18
-6.59322e-18
-1.30329e-17
2.34989e-19
-8.89366e-18
-2.45891e-18
-2.15845e-18
-1.55588e-18
3.04655e-18
5.37077e-19
-3.4835e-18
2.25138e-18
-5.04318e-18
-2.41697e-18
1.38178e-17
1.58772e-17
-1.8051e-17
-1.60038e-17
1.26395e-17
3.09678e-18
-2.31663e-17
-1.0666e-17
1.63055e-17
1.53935e-17
1.92572e-17
-1.20697e-17
-1.2297e-17
9.05249e-19
1.28746e-18
6.28523e-18
-1.19054e-17
-1.66414e-17
3.73856e-18
2.40189e-17
1.0976e-17
1.11899e-17
-1.06686e-17
-1.64653e-17
7.72783e-18
-1.02892e-17
-3.0309e-19
1.67678e-17
1.07915e-17
-9.77205e-18
-4.85721e-18
-3.70039e-18
7.93185e-18
2.15718e-19
-9.74819e-18
2.47204e-17
2.3205e-17
-2.07654e-17
-1.39889e-17
1.13329e-18
3.61202e-18
2.1793e-17
-1.79199e-17
-1.71304e-17
1.23989e-17
-1.19451e-17
1.96519e-17
5.90101e-18
-2.0063e-17
3.07757e-19
9.21162e-19
-1.09599e-17
1.32347e-17
2.79595e-17
-8.00761e-18
-2.82116e-17
1.09338e-17
8.9778e-19
9.174e-18
2.18198e-17
-2.47052e-17
-6.72699e-18
3.11624e-17
1.47827e-17
-3.45216e-17
-1.50115e-17
2.11875e-18
-2.49127e-18
8.69041e-19
3.61997e-18
-5.10799e-18
1.1753e-17
8.38766e-19
-1.54769e-17
-5.63685e-18
-2.15578e-17
-1.54348e-17
2.73805e-17
-1.17484e-17
-1.08521e-17
2.90318e-17
7.10975e-18
1.41383e-17
1.33758e-17
-3.2425e-17
-1.37507e-17
2.60836e-17
9.67151e-20
-8.86312e-18
-4.68698e-18
-1.88705e-17
-2.36608e-17
3.66511e-17
1.38259e-17
-1.84014e-17
1.46197e-17
9.73815e-18
1.87888e-17
9.15274e-19
1.03356e-18
-1.16634e-17
-2.17666e-17
2.59878e-17
-4.39811e-17
-5.06583e-17
4.92452e-17
2.63608e-17
-1.56448e-18
7.93773e-18
1.21505e-18
-2.81553e-05
6.50383e-05
9.9399e-05
5.54871e-05
1.8189e-05
7.7704e-06
-4.8717e-05
-0.000114339
-8.90565e-05
-2.4672e-05
2.42723e-06
-1.19387e-05
-3.8658e-05
-6.0025e-05
-9.44106e-05
-0.000119141
1.44322e-05
0.000388052
0.000642532
0.000255921
-0.000494629
-0.000750524
-0.000623731
-0.000517239
-0.000406636
-0.000235665
5.71127e-05
0.000397379
0.000607824
0.000576734
0.000422844
0.000224754
-1.29337e-05
-0.000141822
-7.06106e-05
-3.6121e-05
-8.16998e-05
-7.78476e-05
-7.46792e-05
-7.79737e-05
0.000170249
0.000481829
0.00036543
6.26509e-05
-2.3871e-05
0.000155098
3.65698e-05
-0.000600935
-0.000947783
-0.000573695
8.70893e-06
0.000257534
0.000133241
-0.000178526
-0.000687548
-0.00126629
-0.00082614
0.00182114
0.00521865
0.00427814
-0.00232391
-0.00708636
-0.0060892
-0.00301264
-0.000727118
0.000240129
0.000712453
0.00144166
0.00235008
0.00259509
0.00208242
0.00138457
0.000456611
-0.000660921
-0.000939939
-0.000441574
-0.000512081
-0.00073255
-0.000583805
-0.000266043
0.000184801
0.000389219
0.000217808
-4.2635e-05
-9.64995e-05
8.29989e-05
0.000295938
1.69317e-05
-0.000566778
-0.000612366
-6.9578e-05
0.000413234
0.000462323
0.000224951
-0.00017449
-0.000855119
-0.00145966
-0.000530406
0.00299892
0.00564756
0.00148721
-0.00475097
-0.00534862
-0.00223544
0.000250993
0.00104031
0.000970507
0.000709731
0.000684798
0.000804483
0.000833903
0.000830131
0.000751725
0.000274281
-0.000461505
-0.000555732
-0.000332739
-0.00040838
-0.000404217
-0.000167933
4.93529e-05
0.000112249
6.48345e-05
1.0459e-05
-9.02407e-06
-8.26071e-06
8.28473e-05
0.000114845
-7.4738e-05
-0.000155878
1.89959e-05
0.000180752
0.000158645
7.33913e-05
4.83002e-05
-2.57074e-05
-0.000303341
-0.00052681
0.000243951
0.00228935
0.00171618
-0.00131208
-0.00158089
-0.000277981
3.81336e-05
4.61389e-05
0.000338922
0.000410501
0.000192935
5.73799e-05
0.000112553
0.00026772
0.000390463
0.000398923
0.000107458
-0.000228801
-0.000210994
-0.000110616
-8.63479e-05
-4.77856e-05
1.60796e-05
3.26791e-07
-2.35806e-05
1.20737e-06
2.18725e-05
1.39039e-06
1.41192e-05
6.11074e-05
7.74904e-07
-3.38265e-05
4.55018e-05
5.88506e-05
-3.92475e-05
-9.37182e-05
-8.12158e-06
0.00010281
8.88391e-05
-1.05071e-05
-0.000142029
0.000602522
0.00100102
-0.000417087
-0.000129182
0.000572137
-0.00014427
-0.000562623
-0.000152802
0.000181555
7.95401e-05
-9.0653e-05
-8.02707e-05
4.0496e-05
0.00011701
0.000186809
0.000229089
2.46248e-05
-0.000121582
-5.60727e-05
1.08086e-05
1.74211e-05
2.37911e-05
-7.30178e-06
-3.81728e-05
-1.27037e-05
2.05895e-05
1.20463e-05
-1.62989e-06
3.22957e-05
2.3616e-05
-3.00628e-05
1.96001e-05
2.93804e-05
-6.82641e-05
-0.000123764
-3.98712e-05
7.6918e-05
7.62774e-05
7.9798e-05
-7.8757e-06
3.44707e-05
0.000623392
-8.91066e-05
0.000102559
0.000622428
-0.000171872
-0.000574934
-0.000248533
3.91628e-05
5.1008e-05
-4.44593e-05
-7.96522e-05
-3.85079e-05
-1.0101e-05
-4.09939e-06
0.00010251
9.54631e-05
-6.28161e-05
-7.03408e-05
1.75498e-05
4.09785e-05
2.98878e-05
2.73441e-06
-2.62643e-05
-1.7082e-05
8.11046e-06
1.10476e-05
5.35787e-07
4.58949e-06
3.10503e-05
-1.03926e-05
-2.15097e-05
-5.30747e-07
-4.12906e-05
-6.96813e-05
-1.4653e-05
5.01765e-05
3.24817e-05
3.23193e-05
8.5852e-05
-4.76081e-05
0.000262555
6.93786e-05
8.55397e-05
0.000331228
-0.000200672
-0.000350567
-0.000110004
9.74658e-07
1.45837e-05
4.84037e-06
-8.42321e-06
-1.08277e-05
-6.49799e-06
-2.02871e-05
3.09192e-06
7.07609e-05
-8.99265e-06
-7.78294e-05
-9.24223e-06
3.84914e-05
2.44684e-05
9.02133e-06
-1.17763e-05
-1.24689e-05
9.56633e-07
5.59213e-06
3.22113e-06
-5.13107e-06
6.8753e-06
1.12397e-05
-1.93404e-05
-2.32439e-05
-2.11975e-05
-1.29594e-05
1.64408e-05
2.97998e-05
7.30916e-06
3.40971e-07
6.00029e-05
1.85659e-06
5.34681e-05
6.19972e-05
7.13565e-05
0.000111197
-0.000149339
-0.000151907
-3.30043e-05
-7.02626e-08
3.97612e-07
1.1385e-06
9.82382e-07
-1.4829e-06
-4.64662e-06
4.40636e-06
-6.48074e-07
2.11652e-05
1.82603e-05
-3.86128e-05
-2.67737e-05
1.69534e-05
1.16411e-05
7.22252e-06
-3.17748e-06
-5.17301e-06
-1.58256e-07
1.66371e-06
2.11414e-06
-1.45164e-06
-7.66243e-06
5.14608e-06
-2.31578e-06
-1.96594e-05
-1.23417e-05
1.29314e-05
2.26516e-05
1.51227e-05
1.76885e-06
-5.36876e-06
2.29985e-05
1.06483e-05
-1.19247e-05
2.16603e-05
4.97896e-05
2.70213e-05
-7.31931e-05
-5.30559e-05
-8.67754e-06
4.43034e-07
3.08221e-07
-1.54012e-07
1.81904e-07
7.5137e-07
-3.1978e-06
-2.62723e-06
4.33242e-06
2.86177e-06
9.23202e-06
-6.26562e-06
-1.70428e-05
3.80458e-07
2.41741e-06
3.36638e-06
6.0263e-08
-1.07409e-06
-1.21261e-07
1.48466e-09
2.19955e-07
7.56468e-07
-4.50944e-06
-3.20526e-06
2.19734e-06
-7.56748e-06
-6.28639e-06
1.07136e-05
1.3869e-05
5.99957e-06
1.22706e-06
-2.57778e-06
5.99527e-06
6.75115e-06
-1.91501e-05
1.20849e-06
2.63778e-05
1.39111e-06
-2.62767e-05
-1.23081e-05
-1.08027e-06
3.05448e-07
2.52504e-07
2.54789e-08
-3.01975e-08
1.94858e-07
3.64677e-07
-1.6451e-06
5.3461e-07
9.42561e-07
1.90611e-06
7.68532e-07
-4.58917e-06
-2.60205e-06
-2.11682e-07
1.07291e-06
4.84942e-07
-3.34592e-08
-1.60137e-07
-1.07035e-07
-6.73701e-08
2.10247e-07
-8.69133e-07
-2.4315e-06
9.72599e-07
-8.63056e-07
-2.05909e-06
2.76059e-06
4.22717e-06
1.85983e-06
7.71681e-07
-2.6363e-07
8.18581e-07
3.17993e-06
-8.33348e-06
-2.86095e-06
8.4314e-06
-2.90566e-06
-5.22192e-06
-1.23211e-07
4.86052e-07
1.23889e-07
2.41268e-08
2.72974e-09
-3.06079e-09
-1.98459e-08
7.41018e-08
-7.465e-08
-1.72155e-07
2.93207e-07
1.17309e-07
5.88864e-07
-1.90277e-07
-1.44259e-06
-5.821e-07
1.09104e-07
5.43512e-07
2.24163e-08
-3.77112e-08
-1.67949e-08
-1.93808e-08
-7.34119e-09
2.77849e-08
-8.20946e-07
-1.16092e-07
5.59172e-07
-8.88497e-07
-4.54287e-07
1.47663e-06
1.15741e-06
6.48603e-09
-2.60341e-07
-2.68561e-08
8.61291e-07
-1.41286e-06
-1.14034e-06
1.15029e-06
-1.14345e-06
2.08096e-07
9.35092e-07
2.20693e-07
-4.81406e-10
-2.22999e-11
2.67748e-12
3.69535e-11
-5.72561e-10
-3.18515e-09
8.37438e-09
-2.21682e-08
2.67193e-10
9.67967e-09
3.44523e-08
7.86577e-08
-4.18104e-08
-2.11069e-08
1.23779e-07
3.99644e-08
2.35205e-09
-1.9034e-09
-1.05306e-11
2.56425e-11
-2.06976e-09
6.84495e-10
-2.7892e-09
-4.40626e-08
1.29481e-08
-4.91959e-08
1.72578e-07
1.45897e-07
1.15577e-08
8.81726e-10
-1.5356e-09
-1.10354e-07
-2.38723e-09
-7.38974e-08
-1.40458e-07
5.248e-08
-1.80633e-07
2.94094e-07
2.7547e-07
3.47985e-09
-1.14485e-10
1.29481e-11
1.38702e-12
-2.08979e-13
4.31288e-12
3.61739e-11
-9.2628e-11
2.04478e-10
-3.5102e-10
-2.25925e-11
3.56276e-10
-8.03032e-09
-3.57787e-08
2.09218e-09
4.76168e-09
1.41516e-09
-1.17446e-10
-1.49145e-11
2.67557e-15
-1.7086e-12
2.43025e-11
-1.06505e-10
1.90441e-10
-3.80137e-12
3.0849e-10
-2.06691e-09
6.98504e-09
1.71623e-09
1.06214e-10
-9.57047e-12
3.51442e-10
-3.54366e-10
-3.77958e-09
1.10222e-10
-1.38287e-08
-9.14122e-09
1.68207e-08
4.20145e-08
2.20364e-09
8.64735e-11
3.18803e-12
8.12581e-14
4.09807e-15
7.01996e-16
-1.86682e-14
-2.98663e-13
8.2115e-13
-1.48805e-12
1.30755e-12
3.48805e-14
2.12571e-12
-3.47731e-11
1.20062e-10
8.5629e-12
3.42085e-11
1.92189e-11
1.82201e-12
2.73745e-13
5.50554e-15
7.67855e-15
-1.51046e-13
7.45817e-13
-3.81431e-13
-2.84276e-13
2.37429e-12
-2.36296e-11
5.92307e-11
1.71096e-11
1.27142e-12
2.96338e-13
-4.98835e-12
7.07172e-12
5.07348e-11
-5.15426e-10
-3.20434e-11
-2.17487e-11
8.66422e-10
3.68086e-10
3.34095e-11
4.93858e-13
-1.09619e-13
-6.79874e-15
-1.3587e-16
6.13457e-18
3.97184e-17
1.297e-15
-5.05289e-15
8.5488e-15
-4.68622e-15
-2.64224e-17
7.66197e-15
-1.45506e-13
6.64124e-13
2.87796e-14
1.57591e-13
2.13777e-13
2.28903e-14
1.35992e-15
5.32426e-17
-2.02459e-17
3.57731e-16
-2.17251e-15
-3.64927e-17
-3.51578e-16
1.08488e-14
-1.90056e-13
4.14015e-13
1.47794e-13
1.03324e-14
5.19453e-17
1.32218e-14
-4.1515e-14
-3.29367e-13
3.35641e-12
-4.26903e-14
1.69144e-12
1.44353e-11
4.5789e-12
-7.1596e-14
-5.53083e-14
-4.05348e-15
-1.21808e-16
7.25004e-18
-3.22808e-17
-3.33337e-17
4.3999e-17
-2.37845e-17
-1.56895e-16
1.26247e-16
1.40406e-16
-6.75034e-17
-6.40599e-16
4.50862e-15
9.02322e-17
4.36547e-16
1.26441e-15
6.39726e-17
1.29215e-18
5.68789e-18
7.86878e-18
-6.17046e-18
-8.10445e-18
8.10493e-18
-8.5389e-18
8.85767e-17
-1.15869e-15
1.58225e-15
9.62741e-16
9.96585e-17
-8.90262e-18
4.96392e-18
5.12766e-17
7.0991e-16
-4.72705e-15
-9.3459e-16
1.33083e-14
1.16445e-13
-7.33261e-15
-6.54774e-15
-7.38099e-16
-3.49121e-17
-1.33793e-17
1.52003e-17
3.35879e-17
-1.3798e-17
-2.87368e-17
2.63829e-17
-6.55396e-17
-1.12211e-16
6.70897e-17
8.05199e-17
2.20113e-17
1.86108e-17
5.60087e-19
-9.36269e-18
4.19061e-19
-3.54792e-18
-3.02706e-18
-3.40739e-17
-6.41534e-18
4.28896e-17
9.07156e-18
-1.58681e-17
3.16935e-17
-1.10166e-17
-3.38285e-17
-1.11112e-17
1.62807e-17
3.56405e-17
-4.20666e-18
5.52294e-18
-2.359e-19
-2.00262e-18
-1.02118e-17
-2.56086e-17
1.9275e-18
4.04069e-16
-1.63923e-16
-4.98498e-17
-2.32976e-18
1.6668e-17
6.46399e-18
1.43981e-18
4.46616e-18
2.46341e-17
1.03854e-17
-2.78304e-17
8.42189e-17
-1.5418e-17
-7.8755e-17
2.73956e-17
-2.73749e-17
-2.69113e-18
-1.78681e-17
8.14669e-18
9.98643e-18
2.22793e-18
5.55416e-18
4.31727e-18
2.23748e-17
-7.71444e-18
-1.59986e-17
-7.15387e-19
-7.30735e-18
-3.59195e-18
8.30961e-18
2.74815e-17
1.54155e-18
-2.78e-17
9.2886e-18
2.28772e-17
-1.72804e-17
-1.93784e-17
1.40605e-17
9.89695e-18
-4.00564e-18
-6.14655e-18
1.42894e-18
-2.36032e-18
-4.29218e-18
9.61662e-19
-9.45555e-19
-6.968e-18
7.43465e-18
3.55806e-17
2.14268e-17
-2.47123e-17
-2.82047e-18
3.97678e-18
-6.29659e-17
8.82724e-18
4.04751e-17
-9.04401e-18
-5.06736e-17
4.59287e-17
1.45594e-17
-2.17127e-17
2.15363e-17
-4.80673e-19
-2.6149e-17
-7.04652e-18
1.39924e-17
5.79263e-18
1.62804e-19
-1.14375e-18
3.11165e-18
5.63796e-18
4.98478e-18
-3.6237e-18
-4.11803e-18
7.39068e-18
1.70295e-17
-1.14828e-18
-1.97819e-17
-8.31708e-18
-2.88437e-18
6.3133e-18
2.47913e-18
-7.08644e-18
-8.91361e-18
1.57187e-18
1.06596e-17
-1.48528e-17
-4.56615e-18
-3.06489e-17
-4.76404e-17
1.18659e-16
3.60538e-17
-7.28821e-17
5.05276e-18
-1.46598e-17
1.87161e-17
-1.79351e-17
8.10826e-18
4.86436e-17
9.59277e-18
-2.06451e-17
2.48672e-17
2.65451e-17
-2.06646e-17
4.46134e-18
1.55574e-18
-2.73451e-17
-1.51484e-17
3.6655e-17
1.92062e-17
-5.20799e-17
-3.67871e-18
2.38939e-17
-1.0443e-17
-1.31745e-17
1.10928e-19
1.18351e-17
2.37413e-18
-1.66667e-17
1.57892e-17
8.23101e-18
-5.86108e-18
-4.12199e-18
-1.26945e-17
-1.63925e-18
1.33809e-17
-2.96098e-18
1.07303e-18
-4.99934e-18
3.97218e-17
7.63096e-17
-5.78629e-17
-7.42024e-17
3.67701e-17
9.84942e-18
-4.39323e-17
-1.65448e-17
-1.62613e-17
-7.80388e-19
-1.2461e-17
-1.43329e-18
2.73117e-18
2.93102e-18
-5.29432e-19
3.15943e-18
8.97371e-18
-2.59379e-18
-6.18403e-18
1.74508e-17
-2.1952e-17
-1.56206e-17
1.45281e-17
2.4894e-18
1.94463e-18
-1.49884e-17
3.59579e-18
1.81996e-17
1.99523e-18
3.07247e-18
-9.10336e-18
4.68383e-18
-4.10658e-18
-1.19043e-17
1.00732e-17
1.66213e-18
-6.33494e-19
1.25128e-19
-2.50272e-17
-8.70645e-19
-6.81918e-18
-1.4998e-17
2.11401e-17
1.19272e-17
-1.39077e-17
6.66343e-17
4.52441e-17
-6.90615e-17
-1.09721e-17
1.55314e-18
1.4815e-18
-4.99727e-18
5.80989e-19
-1.3518e-17
-1.38005e-17
1.72142e-17
1.42511e-17
-8.29675e-19
7.184e-18
-2.29973e-17
5.22966e-18
1.8245e-17
-9.87777e-18
4.31379e-17
6.54776e-18
-1.80438e-17
2.80532e-18
-1.12507e-17
-1.57343e-17
-7.70845e-19
-2.84499e-17
-1.17074e-17
4.14203e-17
1.49283e-17
2.86059e-17
2.23276e-17
-4.80251e-17
-1.32936e-17
1.03259e-17
-3.39947e-17
-3.26864e-18
2.19461e-17
5.87048e-18
-1.00092e-18
1.94567e-18
-2.32771e-18
1.9623e-18
2.75849e-18
3.018e-18
-8.02069e-18
5.91849e-18
4.43052e-18
2.10743e-18
-2.03853e-18
-5.13616e-18
6.55491e-18
-2.57158e-18
-5.70014e-18
-2.20738e-18
3.57348e-17
3.92141e-18
-5.42677e-17
3.62459e-18
2.26009e-17
2.62235e-17
-1.69083e-18
-1.9839e-17
-5.54252e-18
-8.11241e-18
2.31315e-18
-3.55807e-18
-4.03712e-18
-3.98381e-18
6.94238e-18
-4.5013e-18
2.66343e-18
5.75012e-18
5.77643e-18
6.02966e-18
-4.79035e-17
8.81463e-18
5.44212e-17
-1.30853e-17
-1.69892e-17
-3.18604e-18
-1.6376e-19
-4.11372e-18
4.41315e-18
7.12051e-18
5.86665e-18
-1.5954e-17
1.78223e-18
-3.20928e-18
3.12173e-17
1.11237e-18
-3.80931e-17
1.6322e-17
5.75301e-18
-2.51693e-17
3.3535e-18
1.87151e-17
1.33502e-17
1.16586e-17
-2.14106e-18
-1.95743e-17
-1.2715e-17
4.37936e-18
-1.27166e-17
9.53572e-18
1.10162e-17
-3.26594e-17
-1.29357e-18
1.24789e-17
1.34302e-18
1.11804e-17
-2.74572e-17
-8.96531e-18
4.28823e-17
4.94748e-18
-1.33963e-17
-2.36293e-17
-2.50381e-18
3.3134e-18
4.37635e-18
1.96044e-17
4.3159e-18
3.95615e-18
-1.41942e-17
6.12204e-05
0.00011013
4.94826e-05
-3.84057e-05
-8.89236e-05
-9.55011e-05
-6.96888e-05
-2.3596e-05
1.46642e-05
4.68178e-06
-3.94588e-05
-7.30973e-05
-0.000101587
-0.00015288
-0.000232697
-0.000287605
-0.000234684
-1.7914e-05
0.0003583
0.000641564
0.000287952
-0.000367184
-0.000501213
-0.000356617
-0.00017075
0.000104133
0.000338187
0.000388766
0.000262619
7.13341e-05
-0.00010699
-0.000276756
-0.000445178
-0.00048528
-0.000204485
0.000168567
0.000203214
3.4851e-05
-6.01135e-05
-3.44709e-05
0.000205851
0.000130059
-0.000348557
-0.000650924
-0.000537132
-0.000129945
0.000273902
0.000427105
0.000218342
-0.000306058
-0.000763551
-0.000868896
-0.000806559
-0.000890725
-0.00123077
-0.0015087
-0.00108693
0.000390767
0.00261329
0.00455002
0.00298581
-0.00267816
-0.0053093
-0.00347074
-0.000843191
0.00134014
0.00259029
0.00263249
0.00174575
0.000586581
-0.000271384
-0.000782712
-0.00144017
-0.002189
-0.00147224
0.0007765
0.00152142
0.000442767
-0.00030513
-0.000166626
1.77251e-05
-0.000165525
-0.000499046
-0.000490794
-0.000220827
0.000141612
0.000430481
0.000499308
0.000306663
-0.000117521
-0.000458376
-0.000473448
-0.000343474
-0.000363926
-0.000719085
-0.0012919
-0.00157007
-0.000927059
0.000809145
0.00297468
0.00340858
-0.000405072
-0.00391755
-0.0031824
-0.00071695
0.00140536
0.00236945
0.00212115
0.00126823
0.000402465
-0.000200265
-0.000458683
-0.00058985
-0.00100076
-0.00117296
-0.00019838
0.000751049
0.000539293
-1.48743e-05
-0.000137384
-4.19027e-05
-0.000137798
-0.000199985
-5.72625e-05
7.07743e-05
0.000111703
0.000125442
0.000114496
5.46231e-05
-6.1938e-05
-0.00012817
-6.91215e-05
3.8541e-07
-1.52593e-05
-0.000131204
-0.000335255
-0.00053968
-0.000582794
-0.000185084
0.000916904
0.00173519
0.00047162
-0.00125971
-0.00102526
-0.000210641
0.000489234
0.000946581
0.000792987
0.000320797
2.74596e-05
-2.74523e-05
-3.06386e-05
-5.95664e-05
-0.000166161
-0.0003284
-0.000207707
6.88049e-05
0.000137505
7.44231e-05
-1.92575e-05
-4.47483e-05
-6.45039e-05
-2.71951e-05
6.71552e-05
7.54497e-05
8.0748e-06
-3.08571e-05
-2.34472e-05
-9.91239e-06
-1.88509e-05
-1.6588e-05
1.92322e-05
3.04385e-05
1.06344e-05
-1.27898e-06
-2.12421e-05
-5.67171e-05
-8.57518e-05
-0.000165011
8.42745e-05
0.000710522
0.000339873
-0.000450558
-9.88151e-05
8.88116e-05
-5.62624e-05
0.000104195
0.000115462
-7.49614e-05
-0.00010864
3.25866e-05
0.000141146
0.000122412
5.53075e-05
-2.98813e-05
-7.12628e-05
-3.84025e-05
1.18584e-05
5.34033e-05
1.13253e-05
-3.19095e-05
-4.76384e-05
1.58699e-05
8.23611e-05
5.74176e-05
-2.55426e-05
-7.1729e-05
-5.87175e-05
-2.30358e-05
-3.50099e-06
3.01128e-06
2.52736e-05
3.00622e-05
1.56306e-05
1.50136e-05
1.24798e-05
-1.35932e-05
5.98761e-06
2.13023e-05
-7.83807e-05
0.000206821
0.000265542
-0.000221663
8.87159e-05
0.000233384
-0.000138748
-0.000135898
-4.87829e-05
-0.000101213
-8.96667e-05
-1.64173e-06
6.78684e-05
7.03003e-05
4.29671e-05
1.13371e-05
-3.46713e-05
-4.42611e-05
-1.03724e-05
4.01158e-05
2.64204e-05
-1.76152e-05
-3.8057e-05
1.58826e-05
6.11737e-05
3.63236e-05
-2.36233e-05
-5.67373e-05
-5.04965e-05
-2.31386e-05
1.74339e-06
2.83301e-06
7.88585e-06
2.12703e-05
1.98902e-05
1.65798e-05
1.57476e-05
-1.96795e-06
-1.94803e-05
3.60843e-05
1.57307e-05
3.53758e-06
0.000152095
-5.15532e-05
3.78866e-05
0.000141805
-9.07782e-05
-0.000118218
-3.80447e-05
-2.86798e-05
-2.03832e-05
-5.73438e-06
2.66809e-06
5.68269e-06
6.49745e-06
1.45418e-05
-4.22306e-06
-3.68367e-05
-1.89354e-05
2.57177e-05
2.47059e-05
-9.78478e-06
-2.56669e-05
7.76147e-06
3.71037e-05
2.1521e-05
-1.08461e-05
-2.95389e-05
-2.81635e-05
-1.63702e-05
-3.32625e-06
9.51821e-07
-2.46988e-06
4.8993e-06
1.27065e-05
1.22735e-05
1.1955e-05
7.43373e-06
-9.36409e-06
-2.94151e-06
2.40296e-05
-4.57755e-06
4.18e-05
6.83209e-06
1.58716e-05
4.04835e-05
-5.18315e-05
-5.6227e-05
-1.46149e-05
-3.44592e-06
-1.47003e-06
-9.91982e-07
-1.48028e-06
-6.53471e-07
1.32337e-07
4.92752e-07
6.81106e-06
-8.92838e-06
-1.45902e-05
1.24597e-05
1.44216e-05
-6.54881e-06
-1.46343e-05
2.66478e-06
2.07821e-05
1.2898e-05
-2.79935e-06
-1.19498e-05
-1.24963e-05
-7.93485e-06
-4.34262e-06
-4.23817e-06
-2.94724e-06
6.0375e-08
4.49839e-06
5.91536e-06
5.29904e-06
3.66822e-06
-1.70611e-06
-2.46452e-06
6.44657e-06
-3.80304e-07
3.28209e-06
6.33156e-06
8.0372e-06
5.7867e-06
-2.35399e-05
-1.96595e-05
-5.16759e-06
-6.524e-07
4.8025e-07
5.29541e-07
8.32389e-08
-1.0995e-07
7.99112e-07
-1.10871e-06
-9.82118e-07
-9.91612e-08
-3.45363e-06
5.90656e-06