/*--------------------------------*- C++ -*----------------------------------*\
| =========                 |                                                 |
| \\      /  F ield         | OpenFOAM: The Open Source CFD Toolbox           |
|  \\    /   O peration     | Version:  5.0                                   |
|   \\  /    A nd           | Web:      www.OpenFOAM.org                      |
|    \\/     M anipulation  |                                                 |
\*---------------------------------------------------------------------------*/
FoamFile
{
    version     2.0;
    format      ascii;
    class       volScalarField;
    location    "50.4676134421789371";
    object      Cww;
}
// * * * * * * * * * * * * * * * * * * * * * * * * * * * * * * * * * * * * * //

dimensions      [0 2 -3 0 0 0 0];

internalField   nonuniform List<scalar> 
60000
(
-1.1011e-09
-2.06976e-09
-1.94717e-09
-2.67754e-10
1.06083e-09
8.21926e-10
-5.38474e-10
-1.10448e-09
1.05894e-10
1.32774e-09
-2.39994e-10
-2.22911e-09
-1.5337e-09
-2.74648e-10
9.43286e-10
3.01254e-09
4.18008e-09
4.90858e-09
1.56887e-09
-1.1611e-08
-1.51868e-08
-3.15984e-09
6.58717e-09
6.45951e-09
3.06582e-09
2.47127e-09
4.00384e-09
2.19437e-09
-4.36496e-09
-2.97262e-09
5.78105e-09
8.791e-09
7.38605e-09
6.12459e-09
-2.19229e-09
-1.2024e-08
-6.88325e-09
2.03005e-09
3.12789e-09
6.36545e-10
-4.04969e-08
-3.27638e-08
-1.00317e-08
9.27006e-09
1.83539e-08
3.54558e-09
-1.83275e-08
-4.25644e-09
3.35253e-08
3.2313e-08
-1.84656e-08
-5.15555e-08
-2.94377e-08
7.59118e-09
3.06383e-08
3.58978e-08
1.9657e-08
5.96201e-09
-2.09461e-08
-9.83481e-08
-5.48249e-08
1.25485e-07
1.09521e-07
-3.58441e-08
-7.14676e-08
-3.26963e-08
-1.38575e-09
1.07205e-08
-1.13556e-09
1.46276e-09
5.46651e-08
7.99652e-08
4.8745e-08
2.0324e-08
-1.94048e-08
-7.27847e-08
-3.21737e-08
4.46089e-08
3.38672e-08
-1.75488e-08
-6.21697e-08
-7.12414e-08
-2.39088e-08
1.09202e-08
3.17397e-08
2.57342e-08
-2.55188e-08
-2.26499e-08
7.06386e-08
9.21192e-08
-1.86359e-08
-1.09146e-07
-8.49231e-08
-3.15536e-09
4.87691e-08
5.32333e-08
2.71333e-08
6.41384e-09
-2.94194e-08
-9.47585e-08
6.04033e-08
4.63739e-07
3.00169e-07
-2.49133e-07
-3.09493e-07
-1.22501e-07
-2.49783e-08
-1.30894e-08
-6.83174e-09
5.25962e-09
3.95862e-08
8.10744e-08
7.55832e-08
3.58432e-08
-1.05949e-08
-6.3504e-08
-5.52126e-08
3.69161e-08
8.46356e-08
1.82601e-08
-4.33283e-08
-1.25664e-07
-5.90822e-08
8.66724e-09
2.85312e-08
4.93727e-08
-2.64732e-09
-5.45895e-08
6.37389e-08
1.68741e-07
1.68101e-08
-1.6828e-07
-1.51505e-07
-1.28157e-08
7.93347e-08
6.77045e-08
1.16341e-08
-6.66625e-09
-4.35101e-08
-1.14322e-07
1.71209e-07
8.29582e-07
5.50404e-07
-5.12794e-07
-5.93524e-07
-1.85884e-07
-5.15966e-09
-2.86251e-08
-4.98789e-08
-1.86107e-08
2.36007e-08
6.07492e-08
8.25152e-08
6.87943e-08
4.96801e-09
-7.41851e-08
-8.57512e-08
-2.28096e-09
1.02527e-07
9.65375e-08
1.08902e-07
-1.61429e-07
-1.81098e-07
-2.53253e-08
2.81746e-08
6.28017e-08
4.94998e-08
-6.53894e-08
-9.36656e-09
2.56616e-07
1.84129e-07
-2.12265e-07
-3.23711e-07
-8.6448e-08
1.41801e-07
1.26902e-07
-2.35816e-08
-5.01596e-08
-1.71791e-08
-1.4477e-07
1.77366e-07
1.15235e-06
9.53421e-07
-6.89208e-07
-9.51725e-07
-2.93749e-07
2.65645e-08
1.16704e-09
-5.90664e-08
-4.85267e-08
-4.9084e-09
3.09553e-08
7.00138e-08
1.27505e-07
1.17506e-07
-3.9116e-08
-1.54091e-07
-9.59517e-08
5.28507e-08
1.92889e-07
2.76326e-07
4.78475e-08
-2.58136e-07
-1.47586e-07
9.27986e-09
5.47366e-08
1.00392e-07
-3.0999e-09
-1.0056e-07
1.91856e-07
4.22349e-07
-2.92675e-08
-4.87732e-07
-2.83685e-07
2.05545e-07
2.57922e-07
-1.05571e-07
-2.05772e-07
1.58006e-10
-4.95496e-08
1.23301e-07
1.3564e-06
1.35533e-06
-7.74572e-07
-1.32557e-06
-4.23934e-07
3.54073e-08
2.8618e-08
-3.28004e-08
-4.21391e-08
-2.12014e-08
4.68464e-10
2.26998e-08
8.66478e-08
1.89763e-07
1.30141e-07
-9.61977e-08
-1.8008e-07
-8.93776e-08
1.033e-07
1.49045e-07
2.46675e-07
-8.65515e-08
-2.31785e-07
-6.33892e-08
2.96839e-08
9.96367e-08
8.50451e-08
-8.99851e-08
2.63152e-08
4.72049e-07
2.72191e-07
-4.46216e-07
-4.43978e-07
2.95601e-07
4.58856e-07
-2.28687e-07
-4.74477e-07
-1.12919e-07
5.73486e-08
9.43076e-08
1.35544e-06
1.49483e-06
-8.26102e-07
-1.5042e-06
-4.82069e-07
1.73139e-08
4.38193e-08
-9.76212e-09
-3.69138e-08
-3.24254e-08
-1.39753e-08
-2.53241e-12
2.80342e-08
1.23833e-07
2.05888e-07
7.28031e-08
-1.16154e-07
-1.613e-07
-8.92261e-08
-9.49954e-08
1.54954e-07
8.62819e-08
-1.44161e-07
-1.05175e-07
-9.36947e-09
5.54229e-08
1.20756e-07
-1.44875e-08
-6.06275e-08
3.15025e-07
3.52405e-07
-2.65323e-07
-3.38195e-07
4.89e-07
5.23547e-07
-3.89027e-07
-6.07116e-07
-1.71003e-07
2.34096e-08
6.27889e-08
1.13542e-06
1.24383e-06
-7.78073e-07
-1.30325e-06
-4.42782e-07
-2.69569e-08
4.4489e-08
1.38555e-08
-2.55927e-08
-2.94851e-08
-8.03916e-09
2.53152e-09
1.35739e-09
4.65463e-08
1.48696e-07
1.5612e-07
3.94545e-08
-6.32913e-08
-1.66795e-07
-2.53231e-07
-6.05752e-08
1.09012e-07
-5.44527e-08
-9.73592e-08
-2.43612e-08
1.58366e-08
7.90726e-08
3.30358e-08
-5.63261e-08
1.61607e-07
1.83614e-07
-1.65719e-07
-1.09774e-08
5.91684e-07
2.56361e-07
-4.35318e-07
-4.42203e-07
-8.39562e-08
-2.03017e-09
-3.31641e-09
7.03477e-07
7.33236e-07
-5.47827e-07
-8.15549e-07
-3.30234e-07
-8.30889e-08
1.98938e-08
2.07726e-08
-1.72849e-08
-1.16868e-08
2.36696e-08
1.96691e-08
-1.87587e-08
-7.15199e-09
8.24321e-08
1.39693e-07
1.23873e-07
1.10387e-07
-5.06234e-08
-2.51734e-07
-2.7524e-07
6.1205e-08
1.49242e-08
-1.17625e-07
-4.59106e-08
1.94967e-08
3.85868e-08
5.44427e-09
-5.82204e-08
1.12963e-07
5.42204e-08
-1.06378e-07
2.33861e-07
4.17245e-07
-6.99122e-08
-3.31779e-07
-2.10412e-07
-1.66413e-08
4.02512e-08
-1.78601e-08
2.29892e-07
2.33737e-07
-1.83651e-07
-2.29473e-07
-1.82578e-07
-1.45077e-07
-2.97721e-08
1.42239e-08
-1.3677e-08
2.5695e-08
8.46437e-08
3.28191e-08
-7.55647e-08
-7.79404e-08
3.67459e-08
1.21567e-07
1.35017e-07
2.09703e-07
1.50403e-07
-1.61129e-07
-4.16097e-07
7.90448e-09
1.22901e-07
-1.52067e-07
-1.2335e-07
6.98856e-08
7.9373e-08
-6.16143e-08
-1.22839e-07
7.89407e-08
4.60604e-08
-6.51241e-08
2.67398e-07
2.41558e-07
-1.95358e-07
-2.90917e-07
-1.24418e-07
-2.24154e-09
3.53148e-08
-6.63252e-10
4.37754e-09
1.95345e-08
7.95641e-08
1.6811e-07
-2.59523e-08
-1.84748e-07
-7.93272e-08
5.99975e-09
-1.0025e-08
9.83695e-08
2.1881e-07
6.92887e-08
-1.96289e-07
-2.2381e-07
-2.90582e-08
1.12009e-07
1.32262e-07
2.31173e-07
2.90656e-07
-7.94489e-08
-4.77489e-07
-5.00417e-08
2.03025e-07
-1.27572e-07
-2.02113e-07
5.87092e-08
1.77797e-07
-3.24661e-08
-1.91093e-07
4.32701e-08
8.73335e-08
-1.09541e-07
1.76379e-07
2.42509e-07
-2.23954e-07
-3.41752e-07
-1.03129e-07
2.22815e-08
2.97381e-08
-1.22928e-08
-1.19564e-08
-3.69346e-09
1.36107e-07
2.94386e-07
7.17294e-08
-1.87421e-07
-9.25119e-08
8.65506e-09
-1.9854e-08
1.49629e-07
4.27605e-07
2.57289e-07
-2.94511e-07
-4.85031e-07
-1.83407e-07
8.70348e-08
1.36857e-07
2.22577e-07
3.34205e-07
-3.04108e-09
-4.53865e-07
-1.68354e-07
1.3489e-07
-4.36851e-08
-1.39199e-07
-1.82894e-08
1.53529e-07
9.20598e-08
-1.49094e-07
2.41253e-08
1.97313e-07
-1.47142e-07
3.19566e-08
2.46307e-07
-2.34212e-07
-2.6857e-07
-5.00862e-08
2.28488e-08
2.26924e-07
1.4783e-08
-1.85483e-07
-1.41152e-07
9.73128e-08
2.99955e-07
5.48577e-08
-1.76428e-07
-4.84076e-08
3.62567e-08
-4.7326e-08
8.43696e-08
5.50007e-07
6.70528e-07
-9.65155e-08
-7.92372e-07
-5.28236e-07
-2.14747e-09
1.38705e-07
1.87066e-07
3.08662e-07
5.41428e-08
-3.25677e-07
-2.83553e-07
-1.94782e-08
3.28888e-08
-1.43866e-09
-4.0458e-08
1.67062e-08
1.51879e-07
6.85684e-09
-1.00502e-07
2.16524e-07
-2.38161e-08
-1.39558e-07
8.92154e-08
-1.36142e-07
4.45207e-08
4.31141e-08
-6.2691e-08
6.59605e-07
3.86127e-07
-5.89286e-07
-5.66931e-07
-1.23962e-08
2.20847e-07
-5.81299e-09
-1.34759e-07
2.0193e-09
7.59663e-08
-3.10317e-08
-6.75099e-08
3.49876e-07
1.02445e-06
6.66639e-07
-7.11237e-07
-1.10095e-06
-3.32821e-07
1.42562e-07
1.64389e-07
2.13162e-07
-1.41387e-09
-1.54187e-07
-2.12451e-07
-1.16087e-07
-7.86921e-09
5.92416e-08
3.70162e-08
-5.70134e-08
1.69936e-08
1.27843e-07
-6.90367e-08
-1.47223e-08
5.82523e-08
-9.90279e-08
-6.32645e-08
5.73194e-08
2.06243e-07
-7.67487e-10
-1.20858e-07
8.05814e-07
1.08121e-06
-4.13724e-07
-1.04229e-06
-3.1414e-07
1.74985e-07
2.36347e-08
-1.35794e-07
-3.50901e-08
1.12919e-07
9.50248e-08
-1.04282e-07
-9.28857e-08
7.57593e-07
1.46402e-06
2.40834e-07
-1.34918e-06
-1.0655e-06
-5.45448e-08
2.12945e-07
9.63437e-08
-1.59611e-07
-1.84921e-07
-1.04078e-07
-3.64354e-08
-1.09327e-08
-1.07777e-09
2.99295e-08
1.69538e-08
-2.39134e-08
8.04799e-08
4.74804e-08
-8.96503e-08
1.09946e-08
2.25892e-08
-2.13188e-08
9.4885e-09
9.50467e-09
-1.65402e-08
-2.24248e-08
4.15214e-07
1.0103e-06
1.99259e-07
-8.57879e-07
-4.8544e-07
1.77201e-07
4.94626e-08
-2.04212e-07
-9.67529e-08
1.3237e-07
2.21982e-07
3.88884e-08
-3.05197e-07
5.52481e-08
1.37656e-06
1.36749e-06
-6.25519e-07
-1.64226e-06
-6.85266e-07
2.00225e-07
1.09999e-07
-1.75845e-07
-2.32554e-07
-6.23701e-08
-1.24669e-10
2.17203e-08
2.4981e-08
-1.91765e-08
-1.63779e-08
-1.28275e-09
3.25832e-08
5.66636e-08
-3.79163e-08
5.18046e-10
5.40701e-08
-3.90592e-08
-5.54651e-08
-1.42196e-08
4.64208e-09
-4.28725e-09
1.89498e-07
5.97087e-07
2.36674e-07
-5.43531e-07
-3.55129e-07
1.64409e-07
2.24234e-08
-2.11936e-07
-1.03661e-07
8.58031e-08
2.06107e-07
2.03021e-07
-1.01093e-07
-3.51306e-07
6.03493e-07
1.67433e-06
4.94661e-07
-1.36843e-06
-1.28691e-06
-1.07273e-07
1.94566e-07
-3.57736e-08
-1.27498e-07
-3.24285e-08
6.23318e-11
2.00658e-08
5.95957e-08
6.98395e-09
-5.71384e-08
-3.02601e-08
5.04457e-09
2.30088e-08
-6.72404e-09
-3.38112e-09
5.20961e-09
-1.68372e-08
1.80965e-09
3.26872e-09
4.41279e-08
-6.74623e-10
6.53015e-09
3.37549e-07
2.36855e-07
-3.37512e-07
-2.87546e-07
7.94248e-08
6.54268e-09
-1.32572e-07
-5.77755e-08
1.91708e-08
9.45296e-08
2.73392e-07
2.57622e-07
-2.96085e-07
-2.84619e-07
1.0254e-06
1.17193e-06
-4.89739e-07
-1.28519e-06
-5.36583e-07
6.94054e-08
1.10246e-08
5.4437e-08
2.96829e-08
-3.95756e-08
-6.29582e-09
1.4304e-07
1.62093e-07
-7.0099e-08
-2.00811e-07
-8.54528e-08
-2.6207e-09
4.72067e-09
1.30735e-08
1.8582e-08
9.3962e-09
-2.38541e-08
5.46661e-08
1.49897e-07
1.18317e-08
-1.51617e-07
-2.29886e-08
1.1179e-07
-3.25075e-08
-1.23991e-07
-5.51679e-08
-8.59622e-09
-2.46818e-09
2.78719e-08
1.8697e-08
1.04226e-08
3.83036e-07
6.96088e-07
5.13613e-09
-8.63031e-07
-1.67657e-07
9.07186e-07
2.88686e-07
-7.08079e-07
-6.03505e-07
-1.49261e-07
9.01073e-08
1.32961e-07
-6.10885e-08
-2.20007e-07
-6.53064e-08
2.27344e-07
3.09755e-07
2.75839e-08
-3.40629e-07
-2.37072e-07
4.09474e-08
-1.2513e-09
-4.38126e-08
2.3651e-08
6.77038e-09
-2.50398e-08
1.32716e-08
4.48778e-08
2.6598e-08
-1.79487e-08
-5.19873e-08
-3.24225e-08
7.01497e-09
1.86505e-09
-1.61877e-08
3.45087e-08
1.14501e-07
4.68937e-08
-1.34556e-07
7.80998e-08
8.64885e-07
1.17129e-06
1.85363e-07
-1.11453e-06
-1.07163e-06
1.07728e-07
4.71958e-07
-9.76011e-08
-3.5188e-07
-1.43374e-07
-1.85516e-08
3.53949e-08
-9.97847e-08
-1.8057e-07
-6.10116e-08
8.7978e-08
1.69018e-07
1.43847e-07
-8.20472e-08
-2.03409e-07
7.18746e-08
2.31796e-07
2.51746e-08
-1.47452e-07
-1.33395e-07
-5.3933e-08
-1.24501e-10
8.11798e-09
-2.2296e-09
-6.88997e-09
-3.15736e-09
-1.06766e-09
-1.98528e-09
-6.61126e-10
4.77374e-09
2.60528e-08
5.05137e-08
1.1086e-08
-6.41902e-08
2.76353e-08
4.29219e-07
8.60456e-07
6.54099e-07
-3.52794e-07
-1.01023e-06
-3.70383e-07
3.84778e-07
1.87516e-07
-2.21716e-07
-2.11022e-07
-1.41739e-07
-7.36368e-08
-4.7974e-08
-4.03829e-08
-2.21551e-08
-9.66843e-10
3.68884e-08
7.29273e-08
1.97684e-08
-6.73901e-08
4.08973e-08
2.72496e-07
2.55845e-07
-6.53367e-08
-3.08333e-07
-2.04012e-07
4.8518e-08
1.16054e-07
1.09795e-08
-5.95864e-08
-4.81603e-08
-1.9692e-08
5.97298e-10
9.01624e-09
-3.74276e-09
-1.63906e-08
1.50142e-09
2.89913e-08
7.70282e-09
-4.14336e-08
2.58751e-08
2.41547e-07
3.62545e-07
1.55184e-07
-2.60762e-07
-3.50809e-07
1.41243e-08
2.3946e-07
6.75153e-08
-1.36029e-07
-3.00158e-08
2.06769e-09
-8.11395e-10
4.8417e-09
4.10978e-08
2.01404e-08
-4.36396e-08
-1.64486e-08
1.61753e-08
-1.12417e-08
7.99635e-08
2.33088e-07
1.4404e-07
-1.49863e-07
-2.46031e-07
-2.01844e-08
1.81774e-07
1.02048e-07
-6.76946e-08
-9.49637e-08
-2.59869e-08
4.7784e-08
8.98383e-08
5.16435e-08
-7.56067e-08
-1.38756e-07
5.32382e-08
2.86014e-07
1.468e-07
-2.19894e-07
-2.7948e-07
1.88053e-08
1.59316e-07
-6.39912e-09
-1.37491e-07
-9.2159e-08
1.80951e-08
4.66824e-08
-1.19803e-08
-5.3028e-08
3.60051e-09
1.2803e-08
-3.16263e-09
1.41889e-09
7.09592e-08
8.88521e-08
-5.00276e-08
-9.47317e-08
3.27109e-08
3.80187e-09
-1.58548e-08
2.1291e-07
2.21781e-07
-1.31449e-07
-2.63542e-07
-4.42404e-08
9.69238e-08
3.22138e-08
-3.65458e-08
-2.10843e-08
2.4763e-08
5.28501e-08
3.60572e-08
-4.02959e-08
-1.1544e-07
-4.66046e-08
1.77995e-07
3.22316e-07
1.57396e-07
-2.15832e-07
-3.55515e-07
-7.82459e-09
2.93313e-07
4.10547e-08
-2.52269e-07
-1.73323e-07
-1.80812e-08
1.15248e-08
-9.55223e-09
-1.31068e-08
1.7212e-08
1.57595e-07
7.78344e-08
-1.34446e-07
-8.36479e-08
1.81766e-07
1.20866e-07
-1.78569e-07
-1.16246e-07
1.26436e-07
3.60296e-08
-1.30531e-07
-1.9193e-08
1.38011e-07
9.08402e-08
-4.77993e-08
-9.74468e-08
-5.68294e-08
-8.67938e-09
2.37089e-08
6.30347e-08
1.03392e-07
1.00556e-07
8.26428e-09
-1.26613e-07
-1.39175e-07
5.01576e-08
2.93949e-07
3.226e-07
1.32493e-08
-3.59538e-07
-3.08409e-07
1.52724e-07
3.08742e-07
-6.75253e-08
-3.14384e-07
-1.32778e-07
6.62196e-08
1.15635e-08
-7.97492e-08
3.6259e-11
-5.68079e-10
-1.51471e-10
2.80453e-10
1.01294e-10
2.01892e-11
-2.86958e-10
-2.62837e-11
7.36372e-10
3.84224e-10
-1.40298e-10
8.99164e-11
5.61863e-10
8.58792e-10
1.42166e-09
1.86047e-09
-5.29359e-14
2.27119e-09
1.7142e-08
1.17509e-08
-1.90082e-08
-1.98826e-08
2.37551e-09
1.63502e-08
1.77703e-08
8.45678e-09
-5.83805e-09
-1.67254e-08
-1.67901e-08
-6.1259e-09
3.81111e-09
5.20562e-09
-6.71503e-10
-5.03468e-09
-3.1547e-09
-1.09916e-09
-1.06882e-09
-4.25795e-10
1.08747e-10
2.78369e-10
-3.39232e-09
-6.8937e-09
-2.16355e-09
-4.53094e-10
-8.37703e-10
6.01065e-10
5.77283e-11
-1.66539e-09
1.10103e-08
1.5028e-08
-2.47686e-09
-1.25733e-08
-7.35547e-09
3.14503e-10
7.00048e-09
1.44949e-08
4.51495e-09
-6.18484e-09
1.41343e-07
2.17092e-07
-1.24771e-07
-2.09861e-07
1.01506e-07
1.71944e-07
3.52147e-08
-5.73723e-08
-7.53666e-08
-7.04643e-08
-5.85166e-08
-2.144e-08
1.97788e-08
3.13197e-08
1.03338e-08
-2.55704e-08
-3.00022e-08
-9.88025e-09
-6.11439e-09
-2.37709e-09
7.65687e-09
6.37075e-09
-1.02137e-08
-1.98085e-08
-6.33108e-09
-3.68913e-10
-1.72308e-10
-2.8793e-09
3.30462e-09
-2.47999e-09
2.16217e-09
3.37157e-08
1.17026e-08
-3.67878e-08
-3.82728e-08
-1.20774e-08
-1.88291e-09
-1.51511e-09
1.9145e-08
-6.83033e-09
7.86739e-08
4.34887e-07
6.41124e-08
-3.40799e-07
2.44528e-07
3.87242e-07
-1.06529e-07
-2.9248e-07
-1.70533e-07
-5.47656e-08
-8.58524e-09
1.19895e-08
2.66052e-08
2.77503e-08
1.54676e-08
-1.64753e-08
-4.32969e-08
-2.64307e-08
-8.87206e-09
-4.55245e-09
1.56969e-08
1.82346e-08
-7.50831e-09
-3.75615e-08
-1.39255e-08
-1.80733e-10
2.75294e-09
-1.84915e-09
6.00039e-09
1.01928e-08
-1.91331e-08
2.47663e-08
3.27689e-08
-4.38986e-08
-5.94413e-08
1.46419e-09
1.48358e-08
-4.64685e-08
-3.38116e-08
1.78649e-08
-1.89022e-08
4.5886e-07
3.89897e-07
-4.16301e-07
3.88564e-07
7.70711e-07
-2.67163e-07
-6.74787e-07
-3.00875e-07
-2.76912e-08
3.18271e-08
3.60342e-08
3.44755e-08
2.32195e-08
1.19029e-08
-1.45782e-08
-7.00213e-08
-7.02561e-08
-2.54637e-08
-1.25116e-08
1.48364e-08
3.78742e-08
1.86773e-08
-6.15489e-08
-3.44602e-08
-1.03004e-09
5.97696e-09
1.69767e-09
3.03941e-09
4.26634e-08
-1.27346e-08
-2.28856e-08
5.16146e-08
-2.7197e-08
-8.6964e-08
2.61548e-08
7.67478e-08
-7.84734e-08
-1.25483e-07
5.25159e-08
-4.87596e-08
1.88052e-07
7.87964e-07
-2.93725e-07
3.9887e-07
1.31952e-06
-2.25939e-07
-1.17366e-06
-5.38529e-07
-2.70875e-08
6.4502e-08
4.88349e-08
3.80349e-08
2.79561e-08
3.71507e-08
6.08483e-08
-5.11343e-09
-1.0838e-07
-8.19633e-08
-3.4173e-08
-5.13929e-09
5.86355e-08
7.00739e-08
-6.19845e-08
-7.43582e-08
-9.27202e-09
9.32204e-09
1.06055e-08
-9.32605e-09
4.14675e-08
7.03287e-08
-5.58854e-08
-1.048e-08
2.49916e-09
-6.95193e-08
7.3105e-08
1.70378e-07
-8.28411e-08
-2.03798e-07
5.80903e-08
9.70678e-08
-1.48301e-07
7.02013e-07
4.94428e-08
4.40157e-07
1.74238e-06
-3.02198e-08
-1.5723e-06
-7.71988e-07
-7.22186e-08
6.3208e-08
5.7907e-08
4.17434e-08
2.3811e-08
3.24114e-08
1.00569e-07
1.49355e-07
1.06268e-08
-1.02004e-07
-6.76154e-08
-5.23455e-08
4.70396e-08
1.02266e-07
-1.36942e-08
-1.11012e-07
-3.01348e-08
7.55881e-09
1.98696e-08
2.79834e-09
-1.74401e-08
1.00321e-07
5.54672e-08
-7.97098e-08
-2.76252e-08
1.16477e-08
1.53337e-07
1.88366e-07
-9.99081e-08
-1.6476e-07
7.14471e-08
1.86111e-07
-1.56538e-07
2.53839e-07
1.93884e-07
5.6184e-07
1.76533e-06
-7.31601e-08
-1.63897e-06
-7.10087e-07
-5.80989e-08
1.97077e-08
1.65321e-08
1.4595e-08
6.97384e-09
-2.23299e-09
3.00718e-08
1.69395e-07
2.02674e-07
2.0503e-08
-6.03038e-08
-9.52096e-08
-4.23672e-08
1.32204e-08
4.83495e-08
-1.00828e-07
-5.56227e-08
2.14234e-09
1.75558e-08
4.35845e-08
-3.32595e-09
-4.46718e-08
1.24113e-07
6.35798e-08
-3.877e-08
7.11103e-08
1.87094e-07
5.35135e-08
-1.03935e-07
-6.45999e-09
9.60897e-08
1.45499e-07
-3.51562e-08
-7.23166e-08
8.74905e-08
6.01451e-07
1.3379e-06
-3.47354e-07
-1.31977e-06
-4.40012e-07
-6.37675e-09
-2.67978e-09
-1.45248e-08
6.5664e-09
4.79663e-08
1.7339e-08
-1.15429e-07
-7.36562e-08
1.95227e-07
2.22617e-07
7.54481e-08
-5.81088e-08
-1.83028e-07
-2.26971e-07
2.12506e-09
-4.35062e-08
-4.28425e-08
1.39332e-09
-3.67293e-09
6.01074e-08
1.39138e-07
-2.07753e-08
-1.14229e-07
1.74218e-07
2.02187e-07
9.01548e-08
-7.69471e-09
-1.45782e-07
-6.78002e-08
7.57605e-08
6.8395e-08
8.52198e-08
8.01597e-08
-1.65073e-07
-8.28691e-08
4.57867e-07
6.85913e-07
-5.02531e-07
-7.62598e-07
-1.55691e-07
1.97074e-08
-1.51536e-08
-2.17087e-08
3.04233e-08
1.57562e-07
1.93325e-07
-7.93477e-08
-3.58726e-07
-1.23499e-07
2.52585e-07
2.94155e-07
1.25496e-07
-2.37752e-07
-4.47374e-07
-1.84441e-07
-1.77428e-08
-1.54151e-08
2.12312e-09
-1.08505e-08
2.53407e-09
1.42085e-07
3.07617e-07
-6.84621e-08
-1.5926e-07
3.44005e-07
3.29372e-07
-2.01074e-07
-3.99554e-07
-1.49678e-07
2.82069e-08
3.12616e-08
6.32156e-08
1.55141e-07
-6.19949e-08
-1.69355e-07
1.70453e-07
1.13626e-07
-3.58106e-07
-2.05918e-07
9.24617e-09
8.34542e-09
-1.28185e-08
-2.04508e-08
5.43331e-08
2.59311e-07
3.52504e-07
4.54654e-08
-4.2424e-07
-4.16875e-07
4.63183e-08
3.79384e-07
4.01348e-07
-8.22663e-08
-4.53842e-07
-4.21001e-07
-6.18141e-08
3.01807e-09
-2.00669e-09
-3.58843e-09
-4.28476e-10
1.07656e-08
2.82351e-07
4.23758e-07
-2.09008e-07
-1.04777e-07
5.53079e-07
1.95711e-07
-4.76082e-07
-4.25121e-07
-1.36012e-07
5.92007e-10
3.80831e-08
1.38527e-07
9.06302e-08
-1.23832e-07
-9.05013e-08
-8.82447e-08
-3.84423e-08
1.94916e-08
-6.61648e-09
2.9038e-09
3.14321e-09
-1.21732e-08
8.01469e-08
3.55936e-07
4.67631e-07
5.4333e-08
-4.892e-07
-5.34653e-07
-1.34656e-07
2.57702e-07
5.36993e-07
2.62048e-07
-2.57093e-07
-5.74242e-07
-1.62522e-07
1.71616e-08
-9.24868e-09
-1.63445e-08
9.36398e-09
-6.26408e-09
9.36289e-08
5.44354e-07
2.40814e-07
-4.41796e-07
3.58323e-07
9.57704e-07
-1.22143e-07
-9.2923e-07
-5.22952e-07
-5.56766e-08
-9.94329e-09
2.32786e-08
1.0872e-07
-2.80907e-08
-1.05654e-07
3.84885e-08
1.88083e-08
-6.06186e-08
-1.27666e-08
1.05743e-08
8.83206e-09
-1.48707e-08
1.02757e-07
4.84324e-07
6.79294e-07
8.32983e-08
-6.96193e-07
-7.07489e-07
-2.33878e-07
1.21393e-07
4.5717e-07
5.13203e-07
-5.71347e-08
-5.65347e-07
-2.573e-07
3.4411e-09
-1.17307e-08
-1.75753e-08
1.67787e-08
7.01822e-09
2.05962e-08
4.57734e-07
5.47407e-07
-4.0469e-07
2.40832e-08
1.30169e-06
2.4092e-07
-1.28541e-06
-7.4683e-07
-1.04284e-08
-8.82153e-08
-1.08031e-07
3.4895e-09
1.21251e-08
9.06729e-09
3.52721e-08
-3.76088e-08
-2.54119e-08
1.00421e-08
2.20482e-08
1.74899e-08
-3.16201e-08
4.68928e-08
4.88517e-07
1.01991e-06
5.3051e-07
-7.61803e-07
-1.0736e-06
-4.30627e-07
3.7591e-08
3.248e-07
5.24162e-07
3.26269e-08
-4.4663e-07
-2.79613e-07
-2.4979e-08
-4.51008e-09
-3.07533e-09
2.17746e-08
2.39098e-08
-1.43175e-08
2.86904e-07
6.37256e-07
-1.70127e-07
-2.4582e-07
1.06302e-06
3.02569e-07
-1.19511e-06
-5.42788e-07
1.32148e-07
-1.79899e-07
-9.85128e-08
2.77033e-08
-5.40142e-08
-1.52225e-08
1.69602e-09
-8.1149e-09
-1.16899e-09
-5.30606e-09
-6.20169e-10
2.07581e-08
1.41602e-08
-3.91799e-08
1.37967e-07
9.83399e-07
1.36899e-06
-9.63226e-08
-1.37856e-06
-8.98086e-07
-1.00758e-07
2.37697e-07
4.09513e-07
7.58535e-08
-2.70344e-07
-2.65034e-07
-8.0296e-08
-9.54762e-09
-1.1431e-09
4.25982e-09
1.74513e-08
-2.66546e-09
9.73048e-08
4.45306e-07
5.8931e-08
-2.60223e-07
5.39275e-07
1.19931e-07
-7.33097e-07
-1.44457e-07
1.56543e-07
-1.95022e-07
6.86787e-08
2.44531e-07
-6.31007e-08
-1.50859e-07
-7.72582e-08
-5.30733e-08
-4.78624e-09
3.6454e-08
-1.98699e-08
-8.63416e-09
1.50069e-07
1.30731e-07
-2.33512e-07
1.78872e-07
1.61251e-06
1.15988e-06
-1.05158e-06
-1.51982e-06
-4.72629e-07
1.53081e-07
2.828e-07
1.03506e-08
-1.53097e-07
-1.61398e-07
-6.86113e-08
-6.42177e-09
4.9626e-09
-9.30564e-09
-1.61895e-08
-1.06591e-08
2.81553e-08
1.9365e-07
8.95036e-08
-1.58538e-07
1.13695e-07
2.45417e-08
-2.36466e-07
-4.09407e-08
4.80584e-08
-5.30313e-08
1.68786e-07
3.48359e-07
5.67422e-08
-2.26527e-07
-2.13138e-07
4.8926e-08
2.16195e-07
-3.21461e-09
-2.04903e-07
-5.1283e-08
2.87353e-07
4.48659e-07
-8.14667e-08
-6.04223e-07
7.7136e-07
1.95599e-06
4.86755e-08
-1.75262e-06
-1.0658e-06
-2.20473e-08
1.71132e-07
-6.75779e-08
-1.19449e-07
-4.37892e-08
5.27833e-09
6.5386e-08
1.19211e-07
2.92042e-08
-1.08607e-07
-1.05149e-07
7.82257e-10
1.07896e-07
6.89742e-08
-1.02183e-07
1.70142e-08
1.45808e-07
-3.54525e-08
-1.35418e-07
-1.61609e-08
-6.8632e-09
9.73266e-08
3.08326e-07
1.33572e-07
-2.34197e-07
-1.82545e-07
1.94189e-07
1.98045e-07
-1.31194e-07
-2.43092e-07
-7.45883e-08
1.70078e-07
4.45097e-07
3.97571e-07
-4.40906e-07
-2.75252e-07
1.57702e-06
1.2275e-06
-1.13718e-06
-1.51936e-06
-3.75061e-07
7.64222e-08
-1.47528e-08
-1.44179e-08
1.40672e-08
-4.60279e-09
3.70851e-08
1.50075e-07
1.558e-07
-4.5995e-08
-1.99739e-07
-7.7612e-08
8.06234e-08
3.25123e-08
-8.61843e-08
9.7629e-08
2.85437e-07
-5.3142e-08
-2.73616e-07
-1.28717e-08
1.96467e-08
-3.74624e-08
2.46353e-07
2.20423e-07
-2.17804e-07
-2.50723e-07
1.11512e-07
1.77153e-07
-7.95265e-08
-1.91331e-07
-8.41359e-08
2.50225e-08
2.01156e-07
5.40514e-07
2.23554e-07
-6.38853e-07
2.6966e-07
1.37545e-06
4.86817e-08
-1.21697e-06
-7.28398e-07
-9.18989e-08
2.77128e-08
9.35252e-08
1.27967e-08
-9.36091e-08
-3.38417e-08
1.2647e-07
2.14827e-07
8.16427e-08
-2.01467e-07
-2.11486e-07
5.54051e-09
6.81031e-09
-2.65644e-08
1.8342e-07
1.67937e-07
-1.9765e-07
-1.82146e-07
1.61431e-07
1.02942e-07
-1.8408e-07
-7.51309e-08
1.14769e-07
-5.51541e-08
-1.32035e-07
3.91283e-09
-9.73536e-10
-3.55381e-08
-8.45926e-09
-2.78648e-10
5.42813e-09
9.0403e-08
4.07179e-07
5.60904e-07
-2.82327e-07
-6.16286e-07
4.57048e-07
5.34699e-07
-4.08061e-07
-5.72714e-07
-1.99285e-07
5.91103e-08
6.72095e-08
-1.55895e-07
-2.78822e-07
-9.22413e-08
1.3619e-07
2.17698e-07
1.38493e-07
-1.44962e-07
-2.89731e-07
-7.10345e-08
2.54432e-08
-2.34397e-08
4.69155e-08
4.09333e-08
-6.67006e-08
-3.84401e-08
9.56617e-08
1.00485e-07
-5.09814e-08
-1.31178e-07
-4.43001e-08
1.46765e-08
-1.35234e-08
-2.01596e-08
1.74284e-09
2.01834e-08
7.49873e-09
-2.33591e-08
7.99664e-08
3.21593e-07
4.82269e-07
4.45804e-07
-1.1837e-07
-7.62095e-07
-2.89061e-07
3.81623e-07
1.54198e-07
-2.00379e-07
-1.31392e-07
-1.9978e-07
-1.71696e-07
-2.23038e-07
-1.72037e-07
-7.60361e-09
7.21182e-08
7.75669e-08
1.13966e-07
4.76046e-08
-1.55515e-07
-8.10069e-08
1.84629e-07
1.35011e-07
-1.08505e-07
-1.60548e-07
-2.72652e-08
3.04848e-08
-1.27762e-08
-5.51445e-09
2.37828e-08
-8.51009e-09
-2.55627e-08
4.29901e-09
9.33947e-10
-3.74745e-09
3.9074e-08
3.72281e-08
-3.3668e-08
-3.83667e-08
9.91088e-08
2.97376e-07
4.5669e-07
5.12892e-07
1.30873e-07
-6.1713e-07
-5.87127e-07
2.18665e-07
4.77825e-07
7.10011e-08
-2.12435e-07
-2.9631e-07
-2.76871e-07
-1.49787e-07
-2.55645e-08
7.76276e-09
-6.45498e-09
-3.96114e-09
9.75807e-09
3.55007e-08
7.65429e-09
-6.16968e-10
2.21623e-07
3.48065e-07
-3.67314e-08
-3.82254e-07
-7.39152e-08
2.88455e-07
7.84253e-08
-2.17945e-07
-1.59122e-07
-2.04226e-08
-1.94175e-09
6.04451e-09
2.90143e-08
1.71591e-08
-1.19569e-08
-1.49773e-08
4.14384e-09
-6.69623e-09
-2.20348e-08
3.09324e-08
1.10528e-07
2.24752e-07
3.21079e-07
1.8623e-08
-3.99181e-07
-1.57556e-07
3.56406e-07
3.24736e-07
-7.16046e-08
-5.56288e-08
-3.14455e-08
-6.1581e-09
3.99801e-09
3.49069e-08
5.48827e-08
-1.12999e-08
-6.20485e-08
-2.6648e-08
1.54658e-09
5.18909e-08
1.77733e-07
1.65804e-07
-1.1965e-07
-2.34441e-07
1.37614e-07
3.85708e-07
5.25448e-08
-3.00303e-07
-2.4526e-07
-6.77867e-08
1.81404e-08
1.05199e-07
1.65703e-07
1.71908e-08
-2.00058e-07
-5.0142e-08
2.80165e-07
1.48907e-07
-2.53813e-07
-2.41364e-07
2.3318e-08
4.54704e-08
-3.15306e-08
-5.01803e-08
-5.46992e-08
-6.18533e-09
5.2622e-08
3.38598e-08
-3.12564e-08
-5.07945e-09
7.98721e-09
-7.72155e-09
1.64046e-08
9.55459e-08
1.0666e-07
-3.80299e-08
-1.31622e-07
-3.00167e-08
1.39398e-08
-1.3317e-08
1.12609e-07
1.79535e-07
-3.62616e-08
-1.99492e-07
-3.52135e-08
1.598e-07
9.08494e-08
-8.8439e-08
-1.41822e-07
-7.64737e-08
2.15016e-09
5.9286e-08
5.68588e-08
-4.55071e-08
-9.46966e-08
9.13481e-08
3.16007e-07
2.01184e-07
-2.14896e-07
-3.30506e-07
9.51335e-08
2.78942e-07
-6.85337e-08
-2.65396e-07
-1.24337e-07
2.26021e-08
2.96372e-08
-2.67678e-08
-3.98934e-08
-8.00565e-08
6.27154e-08
4.57209e-08
-7.4955e-08
1.30589e-08
1.84541e-07
6.28287e-08
-1.65781e-07
-9.59e-08
7.3314e-08
1.29712e-08
-7.60541e-08
2.55365e-08
1.24636e-07
6.00119e-08
-5.25967e-08
-8.9635e-08
-6.19421e-08
-2.12369e-08
1.89299e-08
7.93814e-08
1.58043e-07
1.78152e-07
4.03957e-08
-1.81855e-07
-2.21833e-07
4.48975e-08
3.77548e-07
3.82e-07
-6.81446e-08
-4.91571e-07
-2.35529e-07
3.65145e-07
3.53587e-07
-1.86398e-07
-4.26964e-07
-1.85933e-07
8.30656e-08
6.48252e-08
-9.22103e-08
1.31911e-10
5.84439e-10
4.37833e-10
-4.96391e-10
-4.84695e-10
3.55583e-10
6.10921e-10
1.97684e-10
-2.44865e-10
-9.23174e-11
6.34094e-10
1.40642e-09
2.31348e-09
4.1333e-09
7.70796e-09
1.15509e-08
9.7829e-09
-1.30042e-09
-1.10913e-08
-2.30782e-09
4.00303e-09
-8.68604e-09
-5.78979e-09
4.86939e-09
5.81267e-09
-3.50717e-09
-1.19029e-08
-1.09071e-08
-4.93684e-09
-7.01915e-10
5.41723e-10
1.3194e-09
4.73996e-09
9.32796e-09
3.76984e-09
-5.86538e-09
-4.16724e-09
-7.09425e-10
-1.37535e-10
1.4858e-10
3.54651e-09
2.78659e-09
-4.39544e-09
-2.16542e-09
5.77277e-09
2.55145e-09
-4.81848e-09
-4.93175e-09
-1.4574e-09
2.38085e-09
1.16283e-08
2.2335e-08
2.66535e-08
3.18876e-08
4.93764e-08
6.84662e-08
4.6196e-08
-3.01688e-08
-6.95661e-08
2.40686e-08
8.63292e-08
-8.19712e-08
-4.10232e-08
1.28185e-07
6.78191e-08
-7.94204e-08
-1.32903e-07
-9.14047e-08
-3.66264e-08
-7.21645e-09
1.29519e-09
1.58471e-09
4.11239e-09
2.14544e-08
2.13753e-08
-1.2642e-08
-3.79221e-09
4.8529e-09
-7.5949e-09
-3.42973e-09
2.75344e-09
-6.05961e-10
-1.27535e-08
1.96223e-09
1.68843e-08
-3.02979e-09
-1.72151e-08
-4.56113e-09
5.90848e-09
-1.29517e-09
-8.72446e-10
1.46389e-08
2.09651e-08
1.94144e-08
3.44776e-08
6.868e-08
7.72806e-08
3.79381e-09
-6.05457e-08
5.27656e-08
2.1253e-07
-4.94898e-08
-1.46957e-07
2.32589e-07
1.76064e-07
-1.72498e-07
-2.57153e-07
-1.28774e-07
-2.30107e-08
2.36012e-09
-4.6292e-09
-8.92108e-09
-1.01051e-08
-1.03089e-08
1.97964e-09
2.70042e-10
1.85147e-08
2.79784e-08
-1.03105e-08
-1.61036e-08
-2.11614e-09
-2.9864e-09
-1.7743e-08
5.66421e-09
2.67217e-08
-9.6089e-09
-2.69642e-08
2.36456e-09
1.83154e-08
-1.8975e-09
-1.32753e-08
1.30959e-09
8.72872e-09
4.57106e-09
1.20905e-08
4.11059e-08
6.86565e-08
2.44412e-08
-7.29019e-08
3.67425e-08
3.41249e-07
1.14561e-07
-2.98438e-07
2.54756e-07
3.42606e-07
-2.579e-07
-4.02133e-07
-1.29154e-07
4.13941e-08
3.62613e-08
-2.23535e-08
-4.92257e-08
-4.28326e-08
-4.42887e-08
-4.34865e-08
-1.73101e-08
2.6964e-08
5.30019e-08
-1.1388e-10
-2.91751e-08
-9.77823e-09
-4.31134e-09
-2.50173e-08
5.12073e-09
4.0513e-08
-1.11527e-08
-3.91536e-08
9.99455e-09
3.60069e-08
1.50254e-09
-2.68618e-08
-9.66997e-09
3.14445e-09
2.6224e-09
1.13535e-08
3.92487e-08
7.29873e-08
5.76385e-08
-7.59672e-08
-1.18042e-07
3.02312e-07
4.4763e-07
-3.14904e-07
1.8329e-07
6.39711e-07
-2.48472e-07
-6.60358e-07
-2.12938e-07
9.20785e-08
8.54543e-08
-1.8046e-08
-7.74662e-08
-6.30447e-08
-4.4044e-08
-6.78703e-08
-5.91229e-08
1.08384e-08
7.11987e-08
2.02849e-08
-3.77772e-08
-1.32331e-08
7.43034e-10
-3.88348e-08
-7.16527e-09
5.48469e-08
-2.37703e-09
-5.62039e-08
1.56259e-08
6.98207e-08
2.09592e-08
-4.61724e-08
-3.98918e-08
-1.27812e-08
-4.99186e-10
2.01901e-08
5.95997e-08
1.00159e-07
8.96526e-08
-2.34259e-08
-1.90481e-07
1.69984e-08
5.63644e-07
-7.08075e-08
7.18402e-08
8.86449e-07
-8.21853e-08
-9.19283e-07
-3.93189e-07
9.00376e-08
1.24175e-07
1.61737e-10
-8.19195e-08
-6.67061e-08
-1.06436e-08
-7.10578e-09
-5.01687e-08
-1.88532e-08
6.40477e-08
3.79946e-08
-3.10787e-08
-5.0185e-09
1.7623e-08
-5.43722e-08
-3.61412e-08
5.9719e-08
1.86626e-08
-7.25618e-08
-6.36537e-09
9.66047e-08
6.70483e-08
-4.06253e-08
-7.99973e-08
-4.67547e-08
-1.36378e-08
2.21717e-08
7.32079e-08
1.45454e-07
1.47779e-07
-1.28031e-09
-1.81305e-07
-1.77181e-07
3.49451e-07
1.13002e-07
6.35536e-08
8.9287e-07
8.10521e-09
-9.61592e-07
-4.7243e-07
3.22164e-08
8.66538e-08
-1.08862e-08
-6.14488e-08
-4.17217e-08
-1.34768e-08
3.2061e-08
3.62367e-08
8.71208e-09
4.80871e-08
2.91974e-08
-2.76326e-08
4.93468e-09
4.6205e-08
-5.16284e-08
-8.30711e-08
4.63409e-08
5.39982e-08
-6.32777e-08
-6.29732e-08
5.48154e-08
1.1895e-07
4.58671e-08
-6.46686e-08
-9.18898e-08
-4.68302e-08
-7.79153e-10
3.56771e-08
1.56852e-07
2.16436e-07
4.26608e-08
-1.43438e-07
-2.39903e-07
5.18821e-08
1.00313e-07
1.12637e-07
6.26929e-07
-1.10742e-07
-7.4636e-07
-3.25374e-07
1.63772e-08
2.77558e-08
-3.74416e-08
-1.96846e-09
7.91949e-08
-4.10802e-08
-1.92788e-07
-5.68046e-08
8.58857e-08
9.26165e-08
7.79693e-09
-6.47055e-08
-2.35257e-08
8.48236e-08
-3.56225e-08
-1.31251e-07
2.79651e-08
9.86431e-08
-2.65447e-08
-9.67379e-08
-4.95244e-08
8.10905e-08
1.75275e-07
8.17367e-08
-8.90747e-08
-1.41396e-07
-8.88619e-08
-2.22212e-08
1.28003e-07
2.02626e-07
6.64719e-08
-3.90077e-08
-1.77725e-07
-1.7051e-07
-1.01008e-08
1.0905e-07
2.53246e-07
-2.01255e-07
-3.89486e-07
-1.09309e-07
5.04583e-08
7.91603e-09