/*--------------------------------*- C++ -*----------------------------------*\
| =========                 |                                                 |
| \\      /  F ield         | OpenFOAM: The Open Source CFD Toolbox           |
|  \\    /   O peration     | Version:  5.0                                   |
|   \\  /    A nd           | Web:      www.OpenFOAM.org                      |
|    \\/     M anipulation  |                                                 |
\*---------------------------------------------------------------------------*/
FoamFile
{
    version     2.0;
    format      ascii;
    class       volScalarField;
    location    "50.4676134421789371";
    object      dissVW;
}
// * * * * * * * * * * * * * * * * * * * * * * * * * * * * * * * * * * * * * //

dimensions      [0 2 -3 0 0 0 0];

internalField   nonuniform List<scalar> 
60000
(
-5.89852e-09
-4.31298e-09
-1.14927e-09
-3.47816e-11
-1.27594e-09
-7.49052e-10
3.21343e-11
1.16008e-10
7.82122e-12
-8.95654e-10
-3.43027e-09
-3.53541e-09
-9.40333e-10
8.46102e-12
-1.83621e-10
-4.65346e-10
-2.95503e-09
-5.60055e-09
-4.51475e-09
6.71191e-10
1.72606e-09
-1.16465e-09
-1.853e-09
5.1645e-09
1.1949e-08
1.08881e-08
6.32389e-09
2.4693e-09
-8.89147e-10
-8.4279e-10
5.62572e-10
1.32252e-09
4.01413e-09
6.37327e-09
6.64645e-09
1.61141e-09
-5.75607e-10
8.25991e-11
-2.47924e-09
-5.31755e-09
-2.44753e-09
-1.18387e-09
2.16488e-10
-3.37874e-10
-8.6919e-10
-9.31042e-10
-1.60732e-10
6.08545e-11
1.62277e-10
-7.33415e-10
-2.77693e-09
-3.37863e-09
-1.18881e-09
-1.65104e-11
-1.08977e-09
-2.82787e-09
-3.97565e-09
-3.4731e-09
-8.72234e-10
9.86012e-10
-3.71838e-09
-1.11135e-08
-4.07114e-09
1.00584e-08
1.02431e-08
1.36082e-09
-4.21839e-09
-2.46687e-09
6.90435e-10
6.85355e-10
-4.91267e-12
-1.56459e-10
-2.47714e-10
3.44134e-10
8.05901e-10
7.02343e-10
-1.99497e-10
1.00591e-11
7.06297e-10
-1.0537e-09
-6.87779e-10
-1.21933e-09
-2.10514e-10
-4.99917e-11
3.21429e-10
3.86667e-10
-3.39684e-10
1.78754e-10
-2.0406e-11
1.30491e-10
-3.61893e-10
-1.52585e-09
-1.2786e-09
-1.85817e-10
-1.73077e-10
-3.43741e-10
3.29986e-11
6.3834e-10
2.74996e-10
-1.3271e-09
-4.06018e-09
-8.83176e-09
-3.16313e-09
7.44823e-09
4.56322e-09
-2.75531e-09
-4.4451e-09
-3.50147e-10
3.71527e-09
3.02267e-09
-1.04828e-10
-2.14706e-10
7.90758e-10
3.46042e-10
-4.27842e-10
-4.92393e-10
3.07656e-10
-1.88918e-09
-2.36818e-09
-1.55611e-10
-3.20153e-10
-2.81677e-09
-1.74604e-09
-8.74533e-11
1.75267e-10
4.97754e-10
-7.87297e-11
-2.00239e-10
3.03307e-10
-2.97399e-10
2.00848e-11
-1.98815e-09
-2.56578e-09
-8.35509e-10
-3.0808e-10
-9.9004e-10
-7.73003e-10
1.32047e-10
2.10323e-10
4.98431e-10
2.38735e-09
-9.2484e-10
-1.6535e-09
5.77135e-09
4.15205e-09
-1.00937e-09
-1.7069e-09
9.39686e-10
3.51242e-09
3.40153e-09
8.22024e-10
-6.74924e-10
-7.75669e-11
2.76259e-10
-1.97556e-11
5.45845e-10
9.26633e-10
-6.79198e-10
-2.93369e-09
-1.28996e-09
-7.88672e-10
-1.68586e-09
-3.95149e-09
-1.13867e-09
1.85633e-10
3.55893e-10
2.19341e-10
-4.12848e-10
9.35156e-11
-6.48939e-10
8.99141e-11
-2.00568e-09
-5.6863e-09
-3.84882e-09
-6.27781e-10
-1.57836e-09
-1.84857e-09
1.65238e-10
7.05804e-10
-6.87691e-12
4.83598e-09
6.9954e-09
6.51982e-10
3.3824e-09
4.61328e-09
1.09096e-09
-2.94163e-10
-1.52203e-10
2.92687e-10
8.13302e-10
2.0277e-10
-9.33276e-10
-8.08968e-10
1.34833e-10
2.38538e-10
1.51887e-10
1.31811e-09
5.08978e-10
-2.71172e-09
-4.35738e-09
-5.84975e-09
-4.17987e-10
-2.15297e-09
-2.56129e-09
-2.60195e-10
2.70502e-10
2.1284e-10
5.94157e-11
-3.39267e-10
-1.12841e-10
-5.03992e-10
-1.21451e-10
-4.92583e-09
-6.49025e-09
-1.95105e-09
-1.94231e-09
-2.90846e-09
3.6631e-10
1.33759e-09
-3.29101e-10
1.41519e-09
1.04059e-08
5.36551e-09
2.61596e-10
6.4055e-10
6.75225e-10
8.88308e-10
4.68468e-10
9.40101e-11
-4.18719e-11
-3.54788e-10
-1.21026e-09
-1.68938e-09
-1.21536e-09
-2.33853e-11
2.43434e-10
3.04461e-10
1.19369e-09
-4.37325e-10
-5.01288e-09
-6.68448e-09
-4.93203e-09
-7.98624e-11
-1.14545e-09
-7.08161e-10
-2.46899e-11
-1.86418e-10
5.45716e-11
-2.1588e-10
3.30291e-10
2.87588e-10
7.52552e-10
-9.75425e-10
-4.11179e-09
-2.68415e-09
-2.21389e-09
-2.01721e-09
6.02887e-10
1.30913e-09
-1.09354e-09
-1.09223e-09
8.40521e-09
9.66378e-09
-8.60989e-10
-3.3413e-09
2.6136e-10
1.43903e-09
5.60541e-10
2.15717e-10
2.97048e-10
3.93413e-10
-3.77909e-10
-1.67758e-09
-2.20952e-09
-1.57794e-09
-1.13114e-10
3.41057e-10
6.18283e-10
1.15877e-09
-1.18477e-09
-2.89156e-09
-6.29729e-09
-2.1162e-09
-2.38477e-11
-6.99643e-11
9.95674e-11
-1.23579e-10
-3.97225e-10
-4.78814e-10
-7.79612e-11
1.08269e-09
1.53523e-09
2.06728e-09
-1.01717e-09
-3.37209e-09
-1.48544e-09
1.49039e-09
1.79711e-09
1.34853e-09
-1.3523e-09
-2.55447e-09
5.37493e-09
1.09921e-08
-7.81014e-10
-4.71859e-09
7.02627e-10
1.23896e-09
2.06336e-10
1.0682e-10
2.387e-10
7.73823e-10
1.09776e-09
-3.16775e-11
-1.70145e-09
-2.11296e-09
-1.24258e-09
4.5649e-11
4.19488e-10
7.49024e-10
9.59933e-10
2.47584e-10
-3.54324e-09
-2.5632e-09
-3.33112e-11
2.98168e-10
1.62788e-10
1.24382e-10
-9.27098e-11
-9.2517e-10
-1.31664e-09
2.49512e-10
1.94029e-09
1.39603e-09
-1.92589e-09
-3.93164e-09
7.66984e-10
4.20312e-09
2.69196e-09
8.88368e-10
-2.96695e-11
-2.8457e-09
2.81143e-09
8.98962e-09
-1.29929e-09
-3.3249e-09
8.00747e-10
-1.25023e-11
-2.28185e-10
3.59516e-11
1.59494e-10
7.54623e-10
1.59519e-09
1.58702e-09
9.73874e-11
-1.31573e-09
-1.32957e-09
-4.87303e-10
2.19797e-10
3.29257e-10
8.19101e-10
1.08375e-09
-6.82371e-10
-1.62962e-09
4.76178e-10
1.08217e-09
5.09455e-10
-1.20957e-10
2.74157e-11
-6.83301e-10
-1.99319e-09
-1.40301e-09
8.42628e-10
1.35408e-10
-3.80457e-09
-2.95744e-09
2.1081e-09
3.30763e-09
1.86946e-09
5.39228e-10
3.84477e-10
-9.18929e-10
6.68533e-10
5.84473e-09
-3.08461e-10
-3.95457e-10
-4.87718e-10
-1.29035e-09
-2.89508e-10
4.35283e-11
9.09535e-11
5.82499e-10
1.32398e-09
1.69883e-09
1.07033e-09
-2.17273e-10
-8.45027e-10
-4.9002e-10
6.42517e-11
1.41398e-10
2.70764e-10
7.40001e-10
6.68096e-10
-5.22117e-10
5.00093e-10
1.15145e-09
9.28764e-10
2.06639e-10
9.77996e-12
-2.34405e-10
-1.66975e-09
-2.16663e-09
-4.75812e-10
-6.36826e-11
-2.70988e-09
-2.06112e-09
7.38033e-10
1.2246e-09
9.93078e-10
8.60158e-10
-5.16567e-10
-9.48004e-10
-7.16158e-10
2.93149e-09
3.55011e-09
1.71239e-09
-1.75687e-09
-1.34062e-09
4.87209e-12
4.7902e-11
6.23155e-12
3.2951e-10
8.62223e-10
1.13913e-09
8.21675e-10
3.2859e-11
-4.59416e-10
-3.6368e-10
-4.81774e-11
4.54496e-11
3.71523e-11
2.18492e-10
9.0087e-10
3.67689e-10
-2.07711e-10
3.35753e-10
9.98653e-10
6.28693e-10
1.23634e-10
2.75918e-10
-5.04151e-10
-1.99266e-09
-1.15426e-09
-3.26588e-10
-2.3745e-09
-3.0774e-09
-9.84065e-10
-7.16574e-11
6.92301e-10
1.59495e-09
-1.53187e-09
-4.54055e-09
-2.82394e-09
9.32169e-10
5.09069e-09
1.8778e-09
-1.86514e-09
-6.14799e-10
2.14852e-10
-3.11686e-11
-1.2727e-10
-8.47988e-11
1.62071e-10
6.06738e-10
3.86382e-10
-2.73833e-10
-4.86783e-10
-2.31658e-10
-3.91247e-11
-5.22553e-12
-3.02839e-11
4.6037e-11
6.73311e-10
1.02315e-09
6.35011e-11
2.21077e-10
6.29582e-10
7.25835e-10
6.29382e-10
3.39316e-10
-1.3291e-10
-1.62171e-09
-1.39106e-09
-4.65176e-10
-3.20772e-09
-4.76524e-09
-2.56611e-09
-1.1644e-09
5.77435e-10
1.72283e-09
-1.09794e-09
-6.66472e-09
-6.19877e-09
-1.81272e-10
3.64272e-09
7.52164e-10
-1.08074e-09
-1.33492e-10
6.39018e-11
-1.28442e-10
-1.75406e-10
-4.1577e-10
-7.36808e-10
-3.31225e-10
7.8894e-11
-4.57517e-10
-7.54095e-10
-3.23636e-10
-2.06166e-11
3.33212e-11
1.03748e-10
1.49284e-10
1.58109e-10
8.18054e-10
9.32979e-10
6.60484e-10
2.41462e-10
1.95467e-10
7.34598e-10
8.74889e-10
2.03184e-10
-2.02457e-09
-1.95264e-09
3.2129e-10
-3.09404e-09
-6.31164e-09
-3.9821e-09
-9.24553e-10
5.59956e-10
9.24978e-10
1.06309e-09
-2.39511e-09
-6.15892e-09
-1.10695e-09
2.55967e-09
3.95185e-10
-6.83507e-10
-3.45295e-10
1.95357e-11
5.32162e-11
-9.72232e-11
-2.70381e-10
-6.65671e-10
-9.30165e-10
-3.44214e-10
-4.81652e-10
-1.11226e-09
-6.64462e-10
-4.80452e-11
-4.49198e-14
1.3462e-10
1.40307e-10
-2.1338e-11
-1.13358e-10
1.01464e-10
2.33226e-10
9.29884e-11
2.78465e-11
2.06711e-10
2.22239e-10
5.53873e-10
-9.88325e-10
-3.29994e-09
2.97432e-10
-1.01934e-09
-5.70214e-09
-2.50223e-09
4.11736e-10
-5.63264e-10
5.37074e-10
1.42312e-09
6.66088e-10
-1.49876e-09
-7.08236e-10
1.94091e-09
5.96038e-10
-5.77955e-10
-2.70688e-11
5.54623e-10
3.89531e-10
-4.2375e-11
1.29324e-10
5.98439e-10
-1.83591e-11
-5.54078e-10
-2.52814e-10
-1.31707e-09
-1.64325e-09
-3.93198e-10
7.3234e-11
-3.32441e-11
-1.33135e-10
1.94588e-10
-1.13084e-11
-8.2942e-11
6.08057e-12
-9.54342e-11
2.90995e-10
7.35697e-10
1.25499e-10
-2.12327e-10
-2.42716e-12
-2.45786e-09
-1.66859e-09
1.71441e-10
-1.90132e-09
-5.31154e-10
-5.16909e-10
-2.84042e-10
7.48869e-10
6.48496e-10
1.40789e-10
-1.97986e-10
2.14982e-10
1.12993e-09
5.40397e-10
2.32414e-11
3.70933e-10
6.22618e-10
3.32273e-10
6.57463e-12
6.13147e-11
6.66106e-10
9.65852e-10
-6.93496e-11
-2.06265e-10
-3.76367e-10
-2.05937e-09
-1.69138e-09
-1.28855e-10
-3.28048e-11
-2.33371e-10
3.26131e-10
9.69664e-10
4.70032e-10
-2.06496e-10
-2.54435e-11
5.85667e-10
1.01335e-09
6.1059e-10
-2.68724e-10
-1.97704e-10
-9.52915e-10
-1.87031e-09
-2.45007e-10
-4.48029e-10
-6.79549e-10
3.16951e-10
2.32172e-10
-2.49142e-10
1.50081e-10
3.6333e-10
2.11306e-10
6.97044e-10
1.18235e-09
5.64492e-10
2.02962e-10
6.71972e-10
6.02909e-10
1.70421e-10
3.26928e-10
4.50468e-10
2.11477e-10
8.30042e-10
9.23935e-10
-3.16728e-10
3.83861e-11
-5.82886e-10
-1.98083e-09
-1.13253e-09
-8.79286e-11
-3.39124e-10
3.47027e-10
9.96815e-10
5.86222e-10
-1.57714e-10
-1.01174e-11
3.01743e-10
6.25268e-10
9.4684e-10
1.94021e-10
-4.5536e-10
-4.59405e-10
-1.17278e-09
-1.3729e-09
-1.02675e-09
1.09137e-10
3.55934e-11
-1.07535e-09
-5.15354e-10
5.40737e-10
7.11859e-10
5.20442e-10
8.41463e-10
8.93392e-10
6.66703e-10
1.31153e-09
1.20627e-09
8.48672e-11
2.37565e-10
8.13367e-10
6.03901e-10
1.24614e-11
1.00718e-10
1.24968e-09
3.59912e-10
-7.48139e-10
-5.52346e-11
-6.66416e-10
-1.38952e-09
-9.24329e-10
-8.85202e-10
-3.84754e-10
3.94849e-10
3.06938e-10
-3.36736e-10
-2.05537e-10
-5.08528e-11
-1.43699e-10
7.437e-10
8.00459e-10
-5.25325e-10
-3.65195e-10
-2.20713e-11
-6.21027e-10
-2.59121e-10
1.38102e-11
-3.43137e-10
-2.78908e-10
-1.17324e-10
4.56013e-10
1.04435e-09
7.82516e-10
3.90071e-10
3.82283e-10
6.71245e-10
5.19695e-10
2.26835e-11
3.93448e-10
3.23337e-10
-9.49771e-11
3.74333e-10
2.66484e-10
-8.33316e-10
-8.05259e-11
8.3825e-10
-5.02861e-10
-8.32342e-10
-1.0919e-10
-3.1836e-10
-7.85959e-10
-1.85653e-10
-3.64258e-10
-1.97892e-10
-3.10892e-10
-5.18951e-10
-1.2982e-11
5.05385e-10
5.77592e-11
-2.25992e-10
7.62991e-10
4.38308e-10
-5.02852e-10
1.08063e-10
2.87173e-10
-2.22446e-10
-2.14891e-10
2.27729e-10
-6.32408e-11
-9.94594e-10
-1.02173e-09
1.18182e-10
4.67312e-10
-3.36958e-10
-5.17824e-10
-2.16195e-10
-1.78505e-10
-9.78736e-11
-1.30745e-10
-3.23668e-10
-2.21273e-10
2.34283e-10
3.18523e-10
-6.85819e-10
-7.72663e-10
5.68265e-10
2.03217e-10
-7.73829e-10
-2.28243e-10
4.40801e-10
3.22013e-10
1.1027e-10
-2.33459e-12
2.00618e-11
-3.11957e-10
-3.79779e-10
-7.02617e-11
2.20413e-10
3.14074e-10
-1.96862e-10
-4.38712e-11
1.02168e-09
6.51116e-10
1.41455e-10
2.11513e-10
-2.24839e-10
-4.1189e-10
-1.61846e-11
1.40748e-10
-2.62037e-10
-8.32562e-10
-8.69885e-10
-2.45538e-10
5.50456e-11
-1.24559e-10
-1.23265e-10
-6.21726e-11
-1.53412e-10
-1.85665e-10
-1.89688e-10
-3.30699e-10
-1.66842e-10
2.79864e-10
-3.21033e-10
-8.21372e-10
3.98732e-10
7.22412e-10
-2.7301e-10
-2.00674e-10
3.85955e-10
4.37931e-10
-1.83971e-10
-2.69371e-10
-2.97032e-10
4.31241e-11
2.0128e-10
-8.89954e-11
-3.37219e-11
4.868e-10
3.66869e-10
-6.39164e-11
5.64462e-10
9.92621e-10
3.53588e-10
7.27371e-11
-5.78646e-11
-3.40978e-10
1.23148e-10
9.70261e-10
9.51207e-10
1.0354e-10
-5.22336e-10
-4.5445e-10
-1.21638e-10
-6.3639e-11
-1.69173e-10
-2.11956e-10
-1.96769e-10
-1.44099e-10
-1.86963e-10
-4.44953e-10
-4.50811e-10
5.02519e-11
-3.09754e-11
-4.8187e-10
-2.04774e-10
3.22727e-10
4.96256e-10
1.71537e-10
-1.91734e-10
-2.91216e-10
2.3404e-10
1.22244e-10
-8.5878e-11
6.00905e-12
1.63079e-10
-4.52301e-11
-3.75638e-11
4.06809e-10
3.51899e-10
-8.4423e-11
2.29861e-10
6.45767e-10
2.00239e-10
1.1956e-10
3.91913e-10
1.42749e-10
6.1973e-11
4.13765e-10
4.34884e-10
7.79736e-11
-9.88024e-11
-7.01894e-12
1.08878e-11
-8.691e-11
-4.70623e-11
1.05577e-10
6.74158e-11
-7.78657e-11
4.46859e-13
-3.10215e-11
-3.03672e-10
-3.31802e-11
2.67718e-10
-3.2889e-10
-2.92537e-10
2.7159e-10
2.8235e-10
1.04142e-10
7.90922e-11
1.73352e-10
-1.45398e-11
-1.16615e-11
6.02292e-11
1.19708e-10
-3.00795e-11
-3.81941e-10
-3.60853e-10
2.34968e-10
3.95178e-10
-2.47954e-11
-3.44353e-11
2.87037e-10
1.70806e-10
2.01427e-11
2.2169e-10
1.24788e-10
-2.20493e-10
-3.21742e-10
-2.14616e-10
-8.03911e-11
6.72749e-11
1.30131e-10
6.3616e-12
-1.08292e-10
-2.55902e-11
7.43222e-11
1.71999e-11
-6.69176e-11
5.00818e-12
1.50797e-10
8.29259e-11
6.88153e-11
3.97368e-10
2.41209e-10
-2.29546e-10
-9.30657e-11
1.54839e-10
1.14937e-10
1.28024e-11
-1.12588e-11
2.9696e-10
-1.19944e-10
-1.71667e-10
3.06536e-11
-4.19274e-11
-3.52526e-10
-3.47622e-10
1.95864e-10
5.37303e-10
1.42356e-10
-1.40021e-10
3.42897e-11
1.27811e-10
2.02263e-11
-7.3062e-11
1.02248e-11
1.80207e-10
2.02481e-10
1.07814e-10
5.47607e-11
2.97778e-11
-2.77304e-11
4.21101e-11
3.48139e-10
5.177e-10
4.11456e-10
2.49017e-10
1.28157e-10
5.31606e-11
1.09417e-10
2.99942e-10
2.48967e-10
-1.63295e-10
-2.39348e-10
1.21753e-10
3.18914e-10
1.90255e-10
-2.07277e-11
1.19231e-10
4.37075e-10
-9.98915e-10
-1.11903e-09
-2.72521e-10
2.03183e-11
-2.28879e-10
-5.26645e-10
-7.94253e-10
-4.4101e-10
5.58082e-10
9.329e-10
8.50904e-10
1.56799e-09
2.47368e-09
2.61081e-09
2.54806e-09
3.43526e-09
4.8844e-09
3.14796e-09
-2.53299e-09
-2.6393e-09
1.69859e-09
8.28492e-10
-6.35759e-11
-2.36897e-09
-1.56529e-09
-5.85542e-11
-1.91038e-09
-3.80282e-09
-1.76632e-09
5.16002e-10
-1.12723e-09
-3.61325e-09
-3.43442e-09
-6.28672e-10
5.99381e-10
-7.75543e-10
-1.83594e-09
-4.30048e-10
3.91841e-12
-4.17664e-10
-2.17988e-09
-1.0766e-09
-2.45049e-10
3.38879e-10
1.25666e-09
1.32885e-09
6.88898e-12
-4.29468e-10
3.57819e-10
-3.83743e-10
-1.19759e-09
9.46309e-11
9.28557e-10
-1.15229e-10
-2.00873e-09
-2.94299e-09
-6.00812e-10
3.77373e-09
3.7824e-09
-1.41875e-10
4.57297e-09
5.76357e-09
-9.54054e-10
1.73528e-10
4.53461e-09
2.76977e-09
-3.11468e-10
-6.96897e-11
2.63911e-11
-7.53704e-10
-9.54789e-10
-8.2526e-10
-7.80961e-10
-3.7152e-10
7.17046e-10
4.72489e-10
3.93655e-11
-7.02063e-11
-5.88627e-10
-1.87413e-09
-1.38743e-09
-8.18295e-10
-6.45923e-11
7.84387e-11
7.95858e-10
1.45253e-09
7.14603e-10
-1.72088e-10
1.98442e-09
2.2479e-09
3.8009e-11
-3.47027e-10
-1.98867e-10
-1.91463e-09
-4.83463e-09
-6.89913e-09
-5.74893e-09
-4.60082e-10
4.3343e-09
-3.22077e-10
-4.89468e-10
8.67855e-09
2.20549e-09
2.32177e-10
3.9812e-09
-1.02759e-10
-2.59867e-09
-1.46018e-11
1.19692e-09
-3.41161e-10
-1.24311e-09
-5.89417e-10
3.21367e-11
2.96162e-11
6.83474e-10
9.60637e-10
2.81048e-11
-5.87065e-13
-1.55007e-10
-3.408e-10
-6.81028e-10
-1.25861e-09
-1.00313e-10
-1.69627e-10
-1.58152e-10
3.90823e-10
6.92391e-10
-3.01084e-11
1.65463e-09
3.92056e-09
1.2179e-09
-4.88499e-10
-1.96867e-10
-1.04771e-09
-3.36784e-09
-4.46492e-09
-3.29411e-09
-8.62372e-10
1.93278e-09
-1.88418e-09
-4.75588e-09
9.80026e-09
7.76423e-09
5.36978e-10
5.17883e-09
2.22581e-09
-8.7086e-10
5.94627e-10
1.74611e-09
7.80819e-10
-2.30929e-10
-2.88249e-10
-1.31353e-11
2.14867e-10
1.2247e-09
2.58541e-09
1.64363e-09
2.78534e-10
-1.23428e-09
-7.28904e-11
2.66283e-10
-1.97804e-09
-9.72015e-10
-3.45176e-11
-2.22819e-10
3.07114e-10
1.06366e-09
7.65264e-10
3.58732e-10
4.59785e-09
4.02182e-09
1.64995e-10
-6.97108e-10
-4.26546e-10
-2.24197e-09
-3.41124e-09
-2.45917e-09
-9.16179e-10
2.32033e-09
2.41099e-09
-7.34051e-09
3.32786e-09
1.30045e-08
2.75011e-09
4.85715e-09
4.01624e-09
5.49975e-10
5.31856e-11
2.6225e-10
-1.22703e-11
-2.64137e-10
-1.576e-10
-1.05136e-10
-2.47478e-10
7.3863e-11
1.84072e-09
2.6023e-09
9.30143e-10
-1.64994e-09
-1.82916e-09
-2.33261e-10
-8.90458e-10
-1.91724e-09
-1.37271e-10
-2.21614e-10
1.93377e-11
6.96697e-10
1.2864e-09
2.31923e-10
1.73462e-09
7.02473e-09
3.83103e-09
-2.87387e-10
-7.08095e-10
-1.16156e-09
-1.36112e-09
-6.13159e-10
-1.69782e-10
8.54939e-10
3.63975e-09
-4.16791e-09
-6.78481e-09
1.02064e-08
6.77962e-09
2.14692e-09
5.1556e-10
-2.61706e-10
2.97245e-10
2.5536e-12
-8.01411e-10
-1.12816e-09
-1.15179e-09
-1.57134e-09
-1.91336e-09
-1.25417e-09
-1.32362e-10
1.85608e-09
1.82009e-09
-6.29369e-10
-3.98076e-09
-4.07664e-09
1.05671e-09
-1.45959e-09
-4.72359e-10
-2.17818e-10
-2.55691e-10
1.69199e-10
8.48069e-11
3.0674e-10
8.25207e-12
3.63621e-09
7.03505e-09
1.68949e-09
-1.05678e-09
-2.63027e-10
1.01628e-09
1.28436e-09
1.04006e-09
7.00312e-12
1.88546e-09
-1.01515e-09
-1.05973e-08
3.39389e-09
1.00273e-08
-1.85534e-10
-5.14584e-09
-2.82959e-09
-3.13947e-10
2.76129e-10
-5.91174e-11
-4.42241e-10
-9.91582e-10
-2.62526e-09
-4.5661e-09
-3.86034e-09
-1.56287e-09
8.56308e-11
1.73157e-09
1.09501e-09
-3.14519e-09
-5.23604e-09
-8.36785e-10
4.29008e-10
-4.97571e-10
-3.38588e-10
-5.47793e-10
1.83346e-11
-5.9346e-10
-1.65963e-09
2.3758e-10
-1.71879e-10
3.47844e-09
2.81556e-09
-8.83055e-10
2.94203e-10
1.58623e-09
1.51831e-09
9.00312e-10
-2.42588e-10
1.06271e-09
3.6815e-10
-9.38926e-09
-6.80426e-10
1.09257e-08
-1.6438e-09
-7.75451e-09
-3.50141e-09
-6.38196e-10
-3.30415e-12
3.46929e-11
1.56119e-10
3.43722e-10
-3.09237e-10
-2.74234e-09
-4.62106e-09
-3.02436e-09
-1.07219e-09
3.2268e-10
1.57919e-09
-9.28401e-11
-1.67935e-09
-3.54333e-09
4.52655e-10
-2.03939e-10
-1.79298e-10
-4.39879e-10
-4.60033e-10
2.77627e-10
-1.28538e-09
-2.32249e-09
1.59197e-10
-1.21737e-09
-7.56993e-10
-5.61537e-10
4.33953e-10
2.57412e-10
-2.35291e-10
-5.95507e-10
-1.66579e-10
7.11692e-10
5.54159e-10
-6.34707e-09
-1.27542e-09
8.92546e-09
-2.76979e-09
-6.55007e-09
-2.07345e-09
-1.50507e-10
-1.73668e-11
-1.36286e-10
-8.78264e-11
2.00262e-10
3.61807e-10
-1.53192e-10
-1.59858e-09
-2.32205e-09
-1.41267e-09
-5.98819e-10
4.61689e-10
1.67994e-09
1.68216e-09
-2.18147e-09
-7.93427e-10
7.35149e-10
1.11135e-09
3.64067e-10
-4.61504e-10
2.7215e-11
1.2545e-09
-1.2692e-09
-2.13075e-09
-1.34207e-09
-3.12643e-09
-9.52629e-10
6.65957e-10
-9.57186e-10
-2.13243e-09
-1.25755e-09
4.18844e-10
3.92997e-10
6.32374e-10
-2.5179e-09
-6.72501e-10
4.92389e-09
-2.14757e-09
-2.38726e-09
-6.80944e-11
8.65814e-11
-1.26046e-10
-2.56061e-10
-1.81745e-10
-1.14918e-11
1.11802e-12
-1.88785e-10
-5.50686e-10
-8.15207e-10
-6.33168e-10
-4.46409e-10
-5.30411e-10
9.74095e-10
2.01484e-09
6.27858e-10
-9.41997e-10
1.72654e-09
1.64538e-09
4.34703e-10
1.97462e-10
-4.85825e-10
-1.02328e-09
5.54296e-10
-2.03213e-09
-4.97472e-09
-4.90931e-09
-1.73038e-09
9.13826e-10
-1.6011e-09
-2.88295e-09
-4.07931e-10
3.6861e-10
4.54113e-10
1.00227e-09
5.47295e-11
-6.28462e-10
1.32109e-09
1.02044e-09
1.2154e-09
-7.02627e-11
-4.13398e-10
-1.57142e-10
-1.3431e-10
-5.87184e-11
-4.98572e-11
-9.42189e-11
-3.39347e-10
-8.00466e-10
-9.52038e-10
-4.42468e-10
1.66987e-10
-1.6479e-10
-4.50645e-10
1.37028e-10
1.68739e-09
-1.57296e-10
5.55626e-10
4.33722e-10
5.22147e-11
3.85468e-10
1.29331e-10
-1.80834e-09
-1.95391e-09
5.40582e-11
-5.10269e-09
-8.26251e-09
-3.06623e-09
1.44989e-10
-1.38103e-09
-1.07112e-09
-1.1377e-10
-2.69364e-10
1.18006e-09
8.37184e-10
-2.64096e-10
-1.58088e-09
-5.61484e-10
2.677e-09
1.30542e-09
-7.11584e-10
-2.73183e-10
-7.96962e-11
-8.09981e-11
-5.27569e-11
-2.83399e-10
-3.10749e-10
-1.14088e-10
-8.61865e-10
-1.38859e-09
-8.66215e-10
1.26607e-11
4.51985e-10
-3.81698e-10
-5.43953e-10
8.56413e-10
5.71674e-10
-5.31879e-10
-4.0743e-11
2.75475e-10
2.37094e-10
2.55293e-10
-6.76311e-10
-2.58839e-09
-7.72316e-10
-1.35345e-09
-7.30691e-09
-4.70575e-09
-1.47041e-10
3.48065e-10
1.2078e-10
-1.38778e-09
-2.81156e-10
1.59413e-09
-7.83514e-10
-2.81486e-09
-2.54989e-09
-3.43445e-10
1.90089e-09
2.98286e-10
-1.96264e-10
-2.33806e-10
-1.76913e-10
6.29547e-11
1.2228e-10
-4.47267e-10
-1.21362e-09
-4.25093e-10
-2.20382e-10
-1.54626e-09
-1.44024e-09
-4.16863e-10
1.73294e-10
3.21908e-10
1.56248e-10
5.03947e-10
6.63889e-10
-4.60336e-10
3.10742e-11
4.44315e-10
1.17595e-10
-8.29093e-11
-1.35712e-10
-2.02907e-09
-2.50407e-09
2.62848e-10
-4.25517e-09
-6.139e-09
-9.04053e-10
6.65986e-10
-8.70685e-10
-1.60319e-09
3.71915e-10
1.29926e-09
-1.77662e-09
-4.74259e-09
-2.78283e-09
2.94097e-10
8.54022e-10
3.20912e-10
-6.0975e-10
-9.74158e-12
7.54267e-10
3.36356e-10
6.09067e-10
1.19714e-09
-5.85985e-10
-1.50097e-09
6.10688e-11
-6.23957e-10
-1.70962e-09
-9.54014e-10
-1.30526e-10
2.8083e-10
3.38014e-10
6.87853e-10
6.55541e-10
2.90736e-10
8.75234e-11
2.50496e-10
4.09191e-10
1.53843e-10
-9.28447e-11
-8.48145e-10
-2.35984e-09
-3.82976e-10
-1.90314e-09
-6.33174e-09
-2.75874e-09
-6.87414e-10
-5.46461e-10
2.22289e-10
5.32966e-10
1.19912e-09
-9.69165e-11
-2.93892e-09
-2.03219e-09
7.26105e-10
7.10444e-10
-5.06658e-10
3.14761e-10
1.77832e-09
1.47821e-09
4.54457e-10
8.24934e-10
2.80463e-09
2.56318e-09
-7.31169e-10
-7.07752e-10
2.18254e-10
-1.18455e-09
-1.30989e-09
-4.15757e-10
3.02903e-11
1.62052e-10
5.15723e-10
2.49288e-10
-1.65584e-10
-1.51324e-11
5.82899e-11
9.41174e-11
3.81532e-10
1.99261e-10
-5.03752e-10
-1.27178e-09
-5.78065e-10
-8.87962e-10
-4.98309e-09
-3.37431e-09
2.0769e-10
1.24533e-09
3.55201e-10
1.58017e-10
1.3072e-09
1.29369e-09
-6.27757e-10
-8.02797e-10
1.00749e-09
1.36782e-09
9.81561e-10
8.74748e-10
1.2032e-09
1.25807e-09
6.18327e-10
1.71617e-10
8.80451e-10
3.04218e-09
2.17285e-09
-6.19211e-10
2.19375e-11
-4.43927e-10
-1.41303e-09
-7.50319e-10
-1.66405e-10
1.38491e-10
4.25054e-10
-1.12123e-10
-4.58408e-10
-4.40075e-11
1.61573e-10
-9.20843e-11
-2.61104e-11
3.7996e-10
-1.97175e-10
-1.01584e-09
-3.49148e-10
-3.56064e-10
-3.35183e-09
-2.1188e-09
1.3988e-09
9.91946e-10
-1.03877e-10
3.86291e-11
1.1091e-09
1.48939e-09
9.17171e-11
-2.23073e-10
1.09426e-09
1.15175e-09
1.08277e-10
2.37285e-10
1.05919e-09
8.77057e-10
5.41028e-10
1.11922e-09
9.66454e-10
1.35357e-09
3.79106e-09
1.81501e-09
-4.70663e-10
3.3461e-11
-7.47738e-10
-1.01707e-09
-4.382e-10
2.1802e-10
5.38683e-10
2.34992e-11
-3.75617e-10
-8.6771e-11
2.52611e-10
1.44481e-10
-1.93263e-10
1.89761e-10
3.96048e-10
-6.55983e-10
-5.95677e-10
-3.49398e-10
-2.2767e-09
-1.43355e-09
1.02435e-09
5.04617e-10
-4.59512e-10
-4.58253e-10
4.4633e-10
1.34009e-09
8.47857e-10
3.72101e-10
8.51133e-10
4.9266e-10
3.56042e-10
1.50159e-09
1.42039e-09
1.79392e-10
1.71958e-10
7.04344e-10
1.187e-09
1.10901e-09
2.55292e-09
3.92194e-09
8.5282e-10
-5.06101e-10
-2.83585e-12
-2.91572e-10
-3.13008e-10
2.12851e-10
-2.44016e-10
-6.38173e-10
-4.7047e-10
-5.73768e-11
1.86823e-10
3.70827e-10
1.63477e-10
-1.04652e-10
5.38535e-10
3.28317e-10
-4.48125e-10
-4.57439e-10
-8.91607e-10
-4.64731e-10
9.77309e-11
-1.96936e-10
-2.61505e-10
-1.31168e-10
3.3462e-11
4.5451e-10
8.07376e-10
6.53134e-10
2.94297e-10
3.20684e-10
9.71224e-10
7.18736e-10
-3.779e-11
3.85977e-11
4.44543e-11
6.84762e-11
1.5244e-10
3.37884e-10
9.95873e-10
2.57064e-09
2.01461e-09
-4.2282e-10
-4.57397e-10
4.50511e-10
5.40891e-10
2.81442e-10
-2.11782e-10
-3.53194e-10
-4.4924e-10
-3.82701e-10
-2.47838e-11
4.96763e-10
8.44292e-10
1.20707e-10
-2.19098e-10
8.57189e-10
4.36972e-10
-8.90818e-11
5.81692e-10
4.00164e-10
-2.34153e-10
-3.55049e-11
2.62836e-10
1.16893e-10
3.73749e-11
-2.32485e-11
-2.94976e-10
-3.18468e-10
-5.70431e-11
2.00872e-10
2.41733e-10
2.45818e-10
7.44546e-11
-2.20431e-10
9.84132e-11
2.64453e-10
-6.12935e-10
-1.23723e-09
-4.78818e-10
1.01113e-09
1.33146e-09
5.5761e-11
-2.84791e-10
5.99417e-10
8.75079e-10
4.78202e-10
1.1832e-10
-5.27247e-11
-7.83479e-11
4.36201e-12
-3.93614e-11
1.42289e-11
8.35142e-10
1.23046e-09
1.4074e-11
1.83848e-10
1.29423e-09
4.15433e-10
-1.22908e-10
4.03668e-11
-3.69152e-11
1.15859e-10
3.37589e-10
1.27169e-10
-1.15673e-10
2.79539e-11
-3.2865e-11
-2.55472e-10
-1.45953e-11
2.56398e-10
1.51188e-10
-9.66659e-11
-2.81135e-10
-2.10032e-10
7.97516e-11
1.24774e-10
-6.29291e-10
-1.19248e-09
-7.12148e-10
5.50103e-10
1.13669e-09
2.2365e-10
-2.85703e-10
2.57523e-10
6.70084e-10
-2.63284e-11
-7.86706e-11
-2.10371e-10
-4.60572e-11
1.26235e-10
-1.83451e-10
-3.61013e-10
4.60652e-10
1.48618e-09
9.62455e-10
9.32497e-11
1.03909e-09
1.21522e-09
1.16923e-11
-2.64966e-10
9.11398e-11
3.91052e-10
5.04673e-10
1.32721e-10
-3.84128e-10
-3.52337e-10
-1.88359e-12
1.41683e-11
-1.82763e-10
-2.62582e-10
-1.81821e-10
-8.31922e-11
-1.17049e-10
-1.57401e-10
-1.69416e-10
-1.64286e-10
-3.8821e-10
-4.65737e-10
-1.99624e-10
-3.69804e-10
3.32447e-10
6.01507e-10
-2.87553e-11
-2.98907e-10
-1.50512e-10
-1.01558e-10
-1.77756e-10
-1.74512e-10
5.98072e-12
2.09796e-10
5.69764e-11
-2.46794e-10
2.16827e-11
5.92177e-10
3.77371e-10
-6.06977e-11
3.54336e-10
5.87019e-10
1.64983e-10
3.92873e-11
-1.28859e-10
-3.64947e-10
-1.46228e-10
6.29475e-11
-1.20553e-10
-2.69048e-10
-1.55143e-10
-1.30167e-10
-2.04089e-10
-1.38056e-11
1.76749e-10
7.06155e-11
-3.50577e-11
-9.36062e-11
-6.16951e-11
2.00521e-10
3.57541e-10
-1.82732e-10
-2.57724e-10
1.54157e-10
-1.78191e-10
-2.71435e-10
-1.98487e-11
8.60273e-11
1.14719e-11
2.82415e-10
1.91084e-10
9.21711e-11
4.22629e-11
-2.8625e-11
-6.91759e-11
3.81949e-13
1.20844e-10
2.90961e-10
2.10514e-10
-2.23757e-10
-1.80634e-10
1.23542e-10
-3.87794e-11
-1.71994e-10
-1.02724e-10
-1.56358e-10
-1.63466e-10
6.01726e-12
7.26634e-11
-9.46352e-11
-2.30868e-10
-1.5917e-10
1.44919e-11
1.31393e-10
1.85387e-10
1.8642e-10
6.06688e-11
-2.84779e-11
1.0364e-10
3.4908e-10
5.36776e-10
3.83286e-10
-5.02004e-11
2.57324e-11
3.21963e-10
2.30244e-10
5.18787e-11
8.40469e-11
2.35342e-10
4.44734e-10
3.50796e-10
1.2546e-10
-5.71912e-11
-1.59731e-10
-8.86157e-11
1.04721e-10
2.11246e-10
1.22259e-10
5.30771e-11
3.11576e-11
-7.20791e-11
-9.78252e-11
-4.58214e-12
-9.35843e-12
-2.16492e-10
-3.48131e-10
-1.38862e-10
1.69586e-10
1.74629e-10
1.75868e-11
1.91917e-10
6.20894e-10
6.1965e-10
2.71619e-10
1.91811e-10
3.47813e-10
2.95646e-10
3.92796e-11
1.82391e-11
3.34228e-10
4.15214e-10
1.40023e-10
3.42856e-11
2.19307e-10
5.01949e-10
5.04986e-10
1.70329e-10
-2.04258e-11
2.04721e-10
1.00419e-10
1.51466e-09
8.18361e-10
-4.15016e-10
2.43014e-10
5.63677e-10
3.00322e-10
-2.36785e-10
-2.87529e-10
5.5154e-11
7.09671e-10
1.54384e-09
1.84308e-09
1.8316e-09
4.18886e-09
6.8459e-09
9.12793e-09
1.01715e-08
7.9367e-09
9.26384e-11
1.43962e-09
6.02392e-09
1.07938e-09
-3.35043e-09
-9.92346e-09
-1.1705e-08
-7.53244e-09
-2.74406e-09
2.04008e-10
9.84675e-10
9.47514e-10
8.54903e-10
8.47867e-10
5.73007e-10
2.62023e-11
1.23228e-09
7.31022e-10
-1.45528e-09
-1.19865e-09
-2.85992e-11
3.37136e-09
3.54248e-09
5.90067e-10
2.80287e-10
8.77111e-10
4.50626e-10
2.77345e-11
1.13818e-10
6.63947e-10
6.72476e-10
8.09226e-11
9.20451e-13
4.68479e-10
8.2104e-10
8.55417e-10
8.17653e-10
1.0451e-09
1.41121e-09
1.06049e-09
-4.16082e-10
5.19585e-10
6.43332e-09
3.65886e-09
-1.64096e-09
-4.09188e-09
-4.24544e-09
-2.01188e-09
-3.02565e-10
-2.12956e-10
-9.60892e-10
-1.43167e-09
-1.48085e-09
-1.26071e-09
-3.71198e-10
7.18291e-10
3.81363e-10
-2.92195e-10
-1.66614e-09
-1.15221e-09
1.67013e-09
1.84931e-09
1.81567e-09
4.80429e-10
1.75308e-10
5.26245e-10
2.87635e-10
-3.968e-11
-1.00058e-10
2.80325e-10
7.84856e-10
8.64748e-10
-5.03018e-11
-9.84121e-10
-2.18941e-09
-3.57283e-09
-4.43747e-09
-3.97909e-09
-2.60856e-09
-9.58148e-10
7.22328e-10
1.94635e-10
2.90291e-09
8.80331e-09
1.46053e-09
2.11194e-10
-2.14661e-12
-6.08873e-12
-3.68022e-11
-1.34365e-09
-3.12612e-09
-3.81183e-09
-2.84717e-09
-1.18823e-09
6.42581e-10
2.80972e-09
2.94234e-09
3.89438e-10
-9.77709e-11
-1.0684e-09
1.0009e-09
1.20009e-09
9.59993e-10
6.10994e-10
1.1238e-10
4.07143e-10
3.49766e-10
-2.07367e-11
-2.82712e-10
-1.6106e-10
1.23048e-10
4.5905e-10
1.13578e-10
-6.56338e-10
-1.47131e-09
-2.03223e-09
-1.98393e-09
-1.33741e-09
-5.23609e-10
4.39699e-10
1.25065e-09
-3.40428e-10
2.32117e-11
9.00797e-09
3.89073e-09
6.53692e-10
8.46318e-10
-5.5101e-11
-1.4494e-10
-8.93134e-10
-2.08031e-09
-2.52603e-09
-1.77785e-09
-4.18074e-10
8.6304e-10
2.25126e-09
2.61176e-09
8.20702e-10
-5.67848e-11
-6.70497e-10
-3.23302e-10
1.06714e-09
1.24272e-09
1.19878e-09
2.43517e-10
1.57451e-10
3.37113e-10
1.62823e-10
-9.80892e-11
-2.46296e-10
3.09555e-11
4.7149e-10
4.74425e-10
-3.85603e-10
-1.08908e-09
-1.28182e-09
-1.10022e-09
-5.84371e-10
9.55583e-11
1.21308e-09
2.65945e-09
1.23826e-09
-3.88889e-09
4.90519e-09
8.09888e-09
1.25176e-09
1.59175e-09
2.83575e-10
-1.44189e-10
-9.7468e-11
-4.93581e-10
-7.83272e-10
-6.2111e-10
-2.41015e-10
-3.1462e-11
6.64046e-10
1.75098e-09
1.17416e-09
-5.03042e-11
-1.45708e-10
-1.23705e-09
-1.89635e-10
1.28584e-09
1.58802e-09
8.74972e-10
4.10946e-11
2.0168e-10
2.5363e-10
2.02627e-10
-1.96009e-12
3.12579e-11
3.49708e-10
6.36672e-10
-9.3225e-11
-7.96527e-10
-1.11965e-09
-1.13199e-09
-6.77351e-10
1.70065e-10
1.15449e-09
2.17497e-09
2.48602e-09
-3.36495e-09
-2.39552e-09
8.5233e-09
3.45468e-09
1.25729e-09
7.46568e-10
9.9974e-11
-1.07269e-10
-9.3119e-11
7.17569e-11
1.97535e-10
-5.53645e-11
-7.13033e-10
-7.59237e-10
4.98524e-10
1.31141e-09
3.52026e-10
3.40065e-11
-8.4631e-10
-5.44203e-10
-1.79378e-11
9.59774e-10
1.50454e-09
2.63687e-10
-1.16398e-11
2.49661e-10
2.63304e-10
5.58789e-10
4.96778e-10
1.32517e-10
2.17598e-10
6.59668e-11
-3.16081e-10
-6.29965e-10
-7.02686e-10
-5.62151e-10
1.94476e-11
9.21393e-10
1.24772e-09
1.95203e-09
-1.13954e-09
-6.60767e-09
3.24909e-09
6.05545e-09
1.75161e-10
-9.64382e-10
8.33153e-11
2.12784e-10
7.51407e-11
1.33775e-10
-9.51859e-12
-1.1349e-09
-3.14247e-09
-3.60359e-09
-1.5826e-09
4.21575e-10
9.03034e-10
2.58843e-10
-2.83497e-10
1.62105e-11
-9.22224e-10
-5.0962e-10
1.44115e-09
7.71846e-10
-8.61849e-11
1.48724e-11
-2.81903e-10
-1.60405e-10
1.51975e-09
9.87808e-10
-4.00777e-10
-2.9272e-10
6.33907e-11
1.83652e-10
4.54188e-10
2.04132e-10
-1.5461e-10
-3.09417e-10
5.46127e-10
1.68654e-09
-3.86566e-10
-6.39073e-09
-1.86301e-10
7.47897e-09
-2.85813e-10
-3.78599e-09
-1.26354e-09
1.02305e-10
1.45857e-10
2.69881e-10
2.68611e-10
-8.53822e-10
-3.87901e-09
-6.67402e-09
-4.86123e-09
-1.35734e-09
3.79041e-10
8.83739e-10
-1.3753e-11
-1.62393e-10
-5.87078e-11
-1.87062e-09
3.86837e-10
7.80435e-10
-3.57513e-11
-1.83874e-10
-3.25412e-10
-9.43723e-10
5.56826e-10
2.59113e-09
-3.31831e-10
-1.48811e-09
7.90096e-10
1.89519e-09
1.1639e-09
7.54483e-10
-6.00318e-11
-1.62526e-09
8.54495e-11
1.35806e-09
-6.15744e-10
-4.36247e-09
1.158e-10
6.83621e-09
-8.85392e-10
-4.90029e-09
-2.12029e-09