/*--------------------------------*- C++ -*----------------------------------*\
| =========                 |                                                 |
| \\      /  F ield         | OpenFOAM: The Open Source CFD Toolbox           |
|  \\    /   O peration     | Version:  5.0                                   |
|   \\  /    A nd           | Web:      www.OpenFOAM.org                      |
|    \\/     M anipulation  |                                                 |
\*---------------------------------------------------------------------------*/
FoamFile
{
    version     2.0;
    format      ascii;
    class       volScalarField;
    location    "50.4676134421789371";
    object      dissuw;
}
// * * * * * * * * * * * * * * * * * * * * * * * * * * * * * * * * * * * * * //

dimensions      [0 2 -3 0 0 0 0];

internalField   nonuniform List<scalar> 
60000
(
-1.61297e-08
1.98005e-09
6.40586e-09
-1.40692e-09
-8.08953e-09
-2.02016e-09
5.44979e-09
5.02834e-09
-7.81692e-09
-2.99231e-08
-3.60275e-08
-2.10222e-08
-6.18085e-09
-4.61229e-10
5.13746e-09
1.45005e-08
2.32196e-08
3.30411e-08
5.00631e-08
6.47756e-08
4.49163e-08
-3.39498e-08
-1.25287e-07
-1.67562e-07
-1.61625e-07
-1.27844e-07
-1.00799e-07
-9.23427e-08
-6.39704e-08
-1.73415e-08
1.57255e-08
5.55494e-08
9.49319e-08
1.06027e-07
7.09383e-08
1.10574e-08
-2.73155e-10
-7.61681e-09
-3.26286e-08
-3.3558e-08
-2.31562e-08
-8.35966e-09
1.60765e-09
1.61927e-09
-1.77643e-09
-3.61347e-09
-8.30404e-10
1.19845e-09
-2.85376e-09
-1.91539e-08
-3.40251e-08
-2.7994e-08
-7.88481e-09
6.38776e-10
1.68015e-09
9.1617e-09
1.57295e-08
1.33178e-08
7.81515e-09
5.44239e-09
8.7847e-09
-4.96822e-09
-6.28106e-08
-9.40225e-08
-6.36743e-08
-1.5855e-09
4.87486e-08
5.91848e-08
4.23178e-08
2.51302e-08
2.03636e-09
-1.10735e-08
5.40809e-10
2.00876e-08
1.91112e-08
3.4769e-10
2.16027e-09
8.60229e-09
-3.52037e-09
-2.33697e-08
-1.11628e-08
-1.49809e-08
-3.38368e-09
2.87048e-09
5.83552e-10
1.39493e-09
-9.49581e-09
-1.03776e-08
-3.12152e-09
7.73764e-09
2.04343e-09
-5.83033e-09
9.04055e-10
3.52679e-09
-8.19846e-09
-1.0124e-08
-6.29215e-09
-1.68796e-09
8.56293e-09
2.42086e-08
6.2777e-08
1.2613e-07
1.46894e-07
1.33658e-07
8.78432e-08
-2.80072e-08
-1.64117e-07
-2.3584e-07
-1.98537e-07
-8.93313e-08
8.01519e-09
6.63518e-08
7.31077e-08
5.54363e-08
3.04607e-08
-4.2411e-09
-2.26328e-08
-2.94851e-08
-1.2526e-08
2.68479e-09
4.99678e-09
6.09904e-09
9.34979e-09
5.11817e-09
3.88504e-09
8.79203e-09
-5.26261e-09
-2.54335e-08
-2.49536e-08
-6.51221e-09
8.53513e-09
5.4635e-09
9.11394e-09
8.24463e-09
-1.1666e-08
-1.77006e-08
-6.72904e-09
-2.45769e-09
-3.71135e-09
-1.70332e-08
2.22421e-09
4.29928e-08
5.48737e-08
5.81096e-08
5.28787e-08
4.85657e-09
-5.21229e-08
-7.69844e-08
-7.32433e-08
-5.02469e-08
-1.74717e-08
1.72671e-08
4.32852e-08
3.81208e-08
4.09981e-09
-2.53014e-08
-3.60514e-08
-3.33244e-08
-3.52084e-08
-1.22265e-08
-3.91041e-09
-2.75281e-09
-3.22177e-09
5.5779e-09
5.10357e-09
5.61038e-09
3.33178e-09
-1.59198e-08
-2.93043e-08
-2.22486e-08
2.27839e-09
-5.87694e-10
-8.43184e-09
-3.74739e-10
-7.3751e-09
-1.44492e-08
8.00687e-10
3.75416e-09
2.53702e-09
-7.66637e-09
-9.27624e-09
2.65789e-08
2.0637e-08
1.05208e-08
2.2905e-08
1.4026e-08
3.62227e-10
-2.59147e-09
-1.90434e-09
3.37907e-09
9.14917e-09
5.94462e-09
1.23167e-08
2.70984e-08
1.83427e-08
-1.07956e-08
-1.73024e-08
-6.85684e-09
-1.25399e-08
-2.42992e-08
-1.91408e-08
-4.15179e-11
-8.6659e-09
-1.00284e-08
-1.55309e-09
5.09193e-10
-5.98472e-10
-1.0696e-09
-1.69256e-08
-3.35547e-08
-1.79734e-08
3.05848e-09
-5.84774e-09
-1.11151e-08
-8.51275e-09
-4.92262e-09
8.6831e-09
2.28525e-09
-4.31559e-09
8.52423e-09
7.01899e-09
3.68832e-08
2.62037e-08
9.58276e-09
1.55235e-08
7.12553e-09
2.09767e-09
2.59774e-10
-7.74233e-10
-1.47925e-09
-8.6434e-10
-1.19282e-09
-2.43763e-09
6.12085e-09
2.06332e-08
1.20849e-08
-3.63559e-09
5.30973e-09
1.38835e-08
-9.34561e-09
-1.78869e-08
-1.50519e-08
6.45231e-10
-3.21287e-09
-4.38779e-09
-3.31913e-09
-7.91178e-09
-5.98121e-09
-9.27912e-10
-1.88344e-08
-3.65222e-08
-1.18077e-08
-5.82807e-10
-6.28985e-09
-6.81776e-09
5.14165e-09
5.9648e-09
-6.34993e-09
-5.76928e-09
-1.06865e-09
1.62275e-08
4.94929e-08
2.47724e-08
3.53742e-09
6.5729e-09
4.84638e-09
1.64506e-09
-3.15723e-10
-4.29006e-10
-8.29766e-10
-2.0234e-09
-4.1759e-09
-4.28188e-09
-2.82822e-09
8.20492e-10
1.19848e-08
8.62667e-09
1.50635e-09
6.74207e-09
7.16562e-09
-4.47661e-09
-1.96814e-08
-8.34333e-09
-6.86466e-10
-1.65192e-09
-1.32514e-09
-3.77542e-09
-1.11371e-08
-8.53929e-09
-4.09909e-09
-2.15903e-08
-3.57771e-08
-1.64785e-08
-9.59426e-09
-6.22521e-09
1.64873e-09
-5.80565e-09
-1.13453e-08
-1.49597e-09
1.28579e-09
-4.78286e-09
4.47769e-08
1.37332e-08
-8.90166e-09
5.07876e-10
4.83579e-09
8.03087e-10
-5.66498e-10
-1.63633e-10
-1.19238e-09
-2.48097e-09
-3.69374e-09
-4.15167e-09
-2.59536e-09
-4.55421e-09
-4.56591e-09
5.96379e-09
6.69689e-09
6.47502e-10
2.6771e-09
-2.78125e-09
-1.14513e-08
-8.33156e-09
-3.29058e-09
-4.73271e-09
-2.85599e-09
1.1545e-09
4.80995e-10
-9.8948e-09
-1.77226e-08
-5.03225e-09
-2.89747e-08
-4.74088e-08
-2.68331e-08
-1.09532e-08
-6.50832e-09
-6.43491e-09
-5.51965e-09
1.11153e-10
9.36031e-09
-6.8634e-09
1.84973e-08
7.43675e-09
-1.28987e-08
-7.56075e-10
4.04681e-09
5.3235e-10
-1.48854e-10
1.22398e-10
-1.28537e-09
-2.91013e-09
-3.25373e-09
-2.50132e-09
-1.25106e-09
-1.2991e-09
-4.81938e-09
-3.40971e-09
2.57484e-09
1.69635e-09
-1.22208e-09
-2.96768e-09
-5.56434e-09
-1.18522e-09
-4.13015e-09
-7.97719e-09
-3.83312e-09
-1.67623e-09
7.08458e-10
-2.04873e-10
-1.58379e-08
-1.69188e-08
-3.6591e-09
-5.50853e-08
-4.7303e-08
-1.58556e-08
-3.39187e-09
-3.40513e-09
-1.37302e-09
1.30206e-09
4.59368e-09
5.73306e-09
1.07454e-08
1.53538e-08
-4.93321e-09
2.43833e-09
3.59245e-09
9.59222e-10
4.23533e-10
1.99682e-10
-1.29773e-09
-2.78558e-09
-3.03865e-09
-1.29211e-09
6.16963e-10
7.84061e-10
-6.83703e-10
-2.15727e-09
-1.14294e-09
-4.68543e-10
-7.98019e-10
-2.30515e-09
-2.63394e-09
4.18449e-09
-5.13583e-09
-6.3103e-09
5.95878e-10
-8.85706e-10
-2.0622e-09
-7.28028e-10
-4.64506e-09
-1.51598e-08
-2.54274e-09
-2.37699e-08
-4.10878e-08
-1.12888e-08
-1.42986e-09
-2.20528e-09
-4.45645e-10
1.42848e-09
7.31963e-10
3.62849e-09
1.43922e-08
2.62705e-08
1.24933e-08
5.35616e-09
2.90436e-09
1.50885e-09
6.49966e-10
-7.60748e-11
-1.27388e-09
-2.19147e-09
-2.39503e-09
-9.47269e-10
1.71851e-09
2.24521e-09
9.79789e-10
-2.86627e-10
-4.7567e-10
-6.63227e-10
-9.8913e-10
-1.3907e-09
-1.61736e-09
4.04629e-09
-2.50753e-09
-4.59158e-10
3.23655e-09
1.10875e-09
1.16801e-10
-2.88449e-11
-1.55507e-09
-6.00808e-09
-7.07645e-09
-5.02156e-09
-2.2414e-08
-9.78613e-09
-7.99805e-10
-7.54774e-11
-4.79182e-11
1.20651e-09
1.20339e-09
-3.30054e-10
7.72194e-09
2.24648e-08
1.80785e-08
5.45339e-09
1.95407e-09
8.20117e-10
-7.70691e-11
-4.37195e-10
-1.07057e-09
-1.44165e-09
-1.45952e-09
-7.21452e-10
1.74457e-09
2.98527e-09
1.70129e-09
3.35847e-10
1.82307e-10
1.93205e-11
-6.8198e-10
-1.62285e-11
3.71963e-10
1.7401e-09
4.95758e-10
2.06246e-09
2.36738e-09
1.08834e-09
1.19153e-09
9.88867e-10
-6.57578e-10
-4.06502e-09
-5.37116e-09
-3.22672e-09
-1.36863e-08
-1.05075e-08
9.30827e-10
3.26694e-09
-1.0058e-10
1.95916e-09
3.13849e-09
-1.24209e-09
7.45006e-10
1.42467e-08
1.10924e-08
3.01364e-09
7.22471e-10
-7.65939e-10
-5.37707e-10
-3.44657e-10
-6.89387e-10
-7.55226e-10
-6.63451e-10
-8.26239e-10
8.41069e-10
2.85342e-09
2.00714e-09
5.28905e-10
2.34196e-10
6.48171e-10
-1.31041e-11
6.02571e-10
8.10867e-10
-9.22647e-11
5.92354e-10
1.7451e-09
1.23993e-09
-2.30489e-10
-1.35227e-11
1.17104e-09
5.72238e-10
-4.45817e-09
-6.5464e-09
-1.63419e-09
-1.01661e-08
-9.32673e-09
2.75044e-09
2.90253e-09
-5.73977e-10
2.91747e-09
3.23018e-09
-1.05649e-09
-3.14482e-09
4.27452e-09
4.47176e-09
2.16211e-09
-2.52853e-11
-9.46088e-10
-7.58551e-10
-4.94766e-10
-6.59167e-10
-7.71984e-10
2.94147e-10
2.32543e-10
-1.00293e-09
1.76213e-09
2.45758e-09
1.02454e-09
1.64405e-10
4.56797e-10
6.4469e-10
5.73537e-10
3.29631e-10
-9.33837e-10
-4.39725e-10
1.51312e-10
2.84586e-10
4.29599e-11
-9.14955e-10
-5.45952e-10
1.23848e-09
-2.72307e-09
-8.88136e-09
-2.37706e-09
-4.63614e-09
-8.34088e-09
-1.09515e-09
2.20918e-10
8.22785e-10
1.00908e-09
7.42541e-10
-1.25438e-09
-3.54459e-09
-1.20811e-09
2.37615e-09
1.54226e-09
-1.5271e-09
-2.41509e-09
-6.22615e-10
3.91834e-10
-3.53499e-10
-8.08315e-10
1.48812e-09
4.51528e-09
5.78188e-10
-8.79695e-10
2.62836e-09
1.3888e-09
9.32142e-11
4.49854e-11
3.56232e-10
-1.47094e-10
-2.14174e-11
-7.85869e-10
-7.21967e-10
-2.36773e-10
-4.38325e-11
3.45331e-10
4.5848e-10
-4.21501e-10
1.17258e-11
-9.83824e-10
-6.83489e-09
-4.19595e-09
-6.0158e-10
-7.04931e-09
-2.97856e-09
4.18849e-10
-3.04983e-10
1.78906e-10
5.34657e-10
-5.68212e-10
-3.63739e-09
-2.89111e-09
1.65134e-09
-1.09822e-09
-5.12991e-09
-1.70706e-09
1.80957e-09
1.42884e-09
3.81925e-10
1.4174e-10
1.94364e-09
5.44568e-09
4.27233e-09
-1.60661e-09
7.48341e-10
1.46618e-09
-3.70308e-10
-4.50113e-10
-2.85999e-10
-9.34274e-10
-9.30172e-10
-1.31066e-09
-8.31734e-10
-3.80672e-10
-6.40543e-10
-2.74658e-11
6.02431e-10
2.14608e-10
-5.98478e-10
-1.30167e-09
-4.47108e-09
-3.11389e-09
1.13572e-09
-2.75595e-09
-1.88114e-09
-2.26935e-10
6.20508e-10
1.3695e-09
9.54225e-10
2.28873e-10
-4.30374e-10
-2.37106e-09
-2.27024e-09
-8.12757e-10
7.6246e-09
1.26976e-08
4.53205e-09
1.07924e-09
2.97729e-09
2.4108e-09
9.52016e-10
1.62167e-09
2.41331e-09
-4.43703e-10
-1.14534e-09
1.40309e-09
1.64804e-10
-6.47066e-10
-7.08279e-10
-5.18412e-10
-3.86246e-10
6.06708e-11
3.47468e-10
-7.61414e-10
-8.89039e-10
1.11467e-09
1.14869e-09
4.19289e-11
-5.82432e-10
-7.92942e-10
-2.10426e-09
-4.26074e-10
2.42484e-09
-5.71013e-10
-1.51195e-09
9.1095e-10
1.28377e-09
2.1197e-10
1.00385e-09
9.00566e-10
-1.47527e-10
-1.99251e-09
-2.8603e-09
2.38659e-09
8.1675e-09
6.51479e-09
1.61487e-10
2.25456e-09
1.59249e-09
6.55048e-10
-3.87178e-10
-3.9081e-09
-1.53564e-09
-2.43215e-11
-1.10623e-09
-2.3151e-10
9.58984e-10
5.64672e-10
-1.62092e-10
2.34571e-09
3.44125e-09
3.01912e-09
-1.87501e-09
-2.15449e-09
2.09052e-09
1.61786e-09
-7.99991e-10
-1.29302e-09
-6.29418e-10
-2.34056e-11
2.35951e-10
4.78236e-10
6.72841e-10
-1.92043e-10
8.98857e-10
1.71314e-09
-8.61212e-10
-1.31285e-09
1.41062e-09
1.27317e-09
-1.33685e-09
-8.85141e-10
2.48744e-09
4.67664e-09
1.02023e-09
1.16189e-09
5.63425e-09
1.75608e-09
-8.76785e-10
9.46012e-10
-3.99145e-10
-4.789e-09
-2.85357e-09
1.06867e-09
2.30284e-10
-6.21593e-10
-1.04511e-10
7.94728e-10
1.52142e-09
2.18045e-09
4.39965e-09
2.75319e-09
-2.18548e-09
-2.03673e-09
1.10883e-09
9.35124e-10
-9.91373e-10
-1.4503e-09
-7.05933e-11
-7.58579e-11
-8.6925e-10
-1.68719e-09
-1.57444e-09
2.04263e-10
1.5433e-09
6.46321e-10
-1.16745e-09
-1.33678e-09
9.61419e-12
8.07193e-10
1.66732e-10
4.2836e-10
1.13262e-09
5.67601e-10
6.83114e-10
1.21177e-09
5.14023e-11
-1.03804e-09
-4.10168e-10
1.10959e-09
-9.71429e-10
-7.02171e-09
-4.0648e-09
5.41824e-09
3.0696e-09
-6.42378e-10
-2.41683e-10
1.01747e-09
1.08511e-09
3.49373e-11
1.13744e-10
5.69516e-10
5.97095e-10
2.02997e-10
-1.82395e-10
1.65248e-10
5.54283e-10
-2.42435e-10
2.54323e-10
1.73951e-09
5.58447e-10
-1.37961e-09
-1.45941e-09
-2.75736e-10
3.53495e-12
-5.47854e-10
-7.81954e-10
-8.9383e-10
-1.38505e-09
-1.38479e-09
-7.38127e-10
-5.01306e-10
-6.15937e-10
-4.48849e-10
-3.1368e-10
-3.66062e-10
-5.20071e-10
-8.84169e-10
-1.12906e-09
-2.96443e-10
-1.88857e-10
-3.33601e-09
-6.38407e-09
1.92065e-10
3.90906e-09
-1.03213e-09
-2.03053e-09
2.2693e-11
5.0395e-10
2.64202e-10
-3.06232e-10
-7.75209e-10
2.23986e-11
6.06184e-10
2.94788e-10
6.32602e-10
1.32353e-09
4.27906e-10
2.44292e-10
3.91847e-09
4.01388e-09
-3.20157e-10
-7.94966e-10
1.94644e-10
-1.06088e-09
-1.55944e-09
-8.7864e-10
-7.7026e-10
-2.04013e-09
-2.32846e-09
-7.85255e-10
6.21231e-11
-6.52836e-10
-1.3262e-09
-1.27309e-09
-1.06836e-09
-8.39672e-10
-4.91002e-10
-2.186e-10
1.8657e-10
-3.12773e-10
-2.60906e-09
-2.77684e-09
-1.14699e-09
-5.09701e-10
-9.90279e-10
-1.10116e-09
-2.68979e-10
3.34064e-10
9.06576e-10
7.25896e-10
1.15006e-10
4.03566e-10
8.60716e-10
5.0899e-10
6.38478e-10
1.25571e-09
1.30169e-09
1.51887e-09
2.27168e-09
1.64914e-09
1.58961e-10
2.56448e-10
3.55947e-10
-5.01584e-10
-8.17395e-10
7.61651e-11
5.76473e-10
4.35346e-11
1.13491e-10
5.20797e-10
-1.51896e-10
-7.93337e-10
-5.43238e-10
1.57001e-10
2.73067e-10
1.22759e-10
7.38408e-10
1.03552e-09
6.22282e-11
-7.66663e-10
-1.33105e-09
-1.38156e-09
-3.60159e-10
-5.3567e-10
-1.18913e-09
-5.15711e-10
2.47216e-10
6.07504e-10
3.78256e-10
1.00031e-10
-2.80826e-10
-1.54521e-11
3.39348e-10
-5.63435e-11
-4.18207e-10
-6.96454e-11
3.52728e-10
1.25053e-09
2.44769e-09
1.4747e-09
-2.75888e-11
-4.25724e-11
6.16854e-10
2.11634e-10
-6.22377e-10
-6.19171e-10
-3.87228e-10
-4.0397e-10
-3.01894e-10
-3.27117e-11
1.1728e-10
-1.13041e-11
-1.3004e-10
8.58204e-11
1.97956e-10
1.22957e-10
3.69878e-10
6.24794e-10
-2.15211e-11
-1.19406e-09
-1.45467e-09
-6.99966e-12
1.88659e-10
-7.30406e-10
-8.14178e-10
-2.11471e-10
2.2929e-10
3.61421e-10
7.69868e-10
4.19272e-10
3.41004e-10
9.48638e-12
-4.16353e-10
-3.4967e-10
-6.48632e-10
-1.60529e-09
-1.23595e-09
-1.06859e-10
-8.62196e-11
-3.57249e-10
-3.41812e-10
-3.07639e-10
4.52414e-11
6.64727e-10
7.23585e-10
2.9765e-10
-6.60323e-11
-2.31653e-10
-1.04104e-10
1.0744e-10
-2.37506e-10
-8.21543e-10
-5.97017e-10
3.93907e-11
5.70695e-11
-2.70357e-10
-1.93427e-11
5.13439e-10
5.42195e-10
-3.88102e-10
-1.22233e-09
-6.04042e-10
4.80576e-10
2.53748e-10
-2.30596e-10
1.25661e-10
8.69683e-10
1.11505e-09
-3.62181e-09
-2.10687e-09
-6.72359e-10
1.05824e-09
3.27816e-09
6.87906e-09
1.03827e-08
4.20072e-09
-5.68903e-09
-1.67643e-08
-2.73183e-08
-3.40357e-08
-3.76122e-08
-3.83442e-08
-3.7907e-08
-4.51566e-08
-5.84657e-08
-3.98197e-08
4.61792e-08
1.34559e-07
1.2083e-07
6.56516e-08
-2.504e-08
-1.4181e-07
-2.04589e-07
-2.17368e-07
-1.87762e-07
-1.3593e-07
-8.40056e-08
-3.48704e-08
2.74365e-08
9.38395e-08
1.26708e-07
1.01437e-07
3.94568e-08
-1.08754e-08
-2.92003e-08
-9.90493e-09
-1.81276e-11
-1.57854e-09
-2.22143e-09
-9.92773e-10
-9.82989e-10
-3.18109e-09
-5.74948e-09
-5.56714e-09
-7.11103e-11
6.18347e-09
3.38047e-09
-2.57533e-10
-4.58857e-09
-8.49511e-09
-8.17472e-09
-5.23759e-09
6.52793e-10
4.06173e-09
-6.77269e-09
-2.72278e-08
-2.55594e-08
2.33068e-08
2.68038e-08
-1.17163e-08
1.67285e-08
-3.38548e-08
-8.60266e-08
-5.65588e-08
3.477e-09
3.46572e-08
3.215e-08
1.27301e-08
-1.74967e-09
2.29775e-09
1.73526e-08
2.79929e-08
1.64137e-08
-4.91153e-09
-2.45224e-09
3.35479e-09
7.73232e-09
4.35061e-10
-2.43439e-09
-2.2397e-09
-2.71492e-10
-1.84091e-09
-1.60971e-09
2.93575e-09
4.13553e-09
-5.02944e-09
-1.5559e-08
-1.5082e-08
9.55968e-11
2.80917e-09
-7.51404e-09
-2.88016e-08
-5.01945e-08
-6.90995e-08
-7.80608e-08
-1.51877e-08
1.30609e-07
1.85505e-07
2.34245e-08
-1.49482e-07
-9.84134e-09
1.32687e-07
1.03443e-07
2.63939e-08
-9.83679e-08
-1.94034e-07
-2.09291e-07
-1.71956e-07
-1.14198e-07
-5.04851e-08
-5.01019e-09
-1.03532e-08
-3.70009e-08
-2.57656e-08
-1.88752e-08
-5.01702e-09
4.00869e-09
6.20042e-09
2.04782e-09
-2.36136e-09
-3.08885e-10
-2.76295e-09
-3.78778e-09
-1.93277e-10
5.30644e-09
-1.76552e-09
-1.68168e-08
-2.00053e-08
-8.11862e-09
1.251e-09
-1.79601e-09
-1.30599e-08
-2.42366e-08
-3.40859e-08
-4.63185e-08
-2.08386e-08
6.92506e-08
1.48676e-07
6.903e-08
-9.25482e-08
-3.74724e-08
7.38422e-08
6.98231e-08
4.83624e-08
-9.59914e-09
-6.51896e-08
-8.56059e-08
-8.25215e-08
-6.74701e-08
-4.31409e-08
-2.03517e-08
-2.01136e-08
-5.13018e-08
-6.53308e-08
-3.73412e-08
-2.14552e-08
-2.37213e-08
1.03908e-09
5.56241e-09
-3.04509e-09
-1.72245e-09
-8.13552e-10
-2.6207e-09
-1.45428e-09
3.78611e-09
7.48602e-09
-3.02642e-09
-6.1531e-09
-6.01405e-09
-2.51683e-09
-2.50754e-09
-3.44447e-09
-1.02438e-09
-8.0547e-10
-1.13159e-08
-9.23723e-09
1.21606e-08
4.2114e-08
4.14161e-08
-4.44992e-09
8.67687e-09
4.47685e-08
2.15603e-08
1.89775e-08
9.99228e-09
-6.28129e-10
-1.98532e-09
-8.03604e-10
-2.43296e-09
-6.05041e-10
6.79071e-09
1.0339e-08
-3.22388e-09
-2.29959e-08
-2.49836e-08
-1.84407e-08
-2.16653e-08
-1.45484e-08
-5.52064e-10
1.69273e-09
-5.01461e-09
-7.14127e-10
-7.18946e-10
-5.76153e-10
1.50102e-09
8.04562e-09
7.65254e-09
-2.96256e-09
2.89044e-09
-1.17113e-09
-4.0895e-09
-2.89729e-09
2.83495e-09
4.35302e-10
-8.45494e-09
-6.04407e-09
-3.11354e-10
1.54539e-08
1.88022e-08
1.07674e-08
4.84827e-08
4.90764e-08
1.43016e-08
1.17337e-08
5.29754e-09
9.36138e-10
-2.32666e-09
-6.29172e-09
-9.68392e-09
-1.18391e-08
-8.72565e-09
-3.97304e-10
5.19457e-09
-3.9376e-09
-5.4901e-09
-1.0956e-09
2.35257e-09
-1.78013e-08
-1.66207e-08
6.11476e-09
-2.08495e-09
-1.61977e-09
8.27842e-10
2.12076e-09
2.69569e-09
2.71505e-09
1.4726e-08
4.00396e-09
-3.88272e-09
4.79288e-09
-3.37286e-10
-1.17896e-09
1.12844e-09
-4.17771e-09
-6.62008e-09
-1.70775e-09
-1.11482e-09
1.34369e-08
2.87911e-08
5.64496e-09
4.98741e-08
4.75139e-08
4.20486e-09
2.81309e-09
1.57609e-09
9.47692e-10
7.92262e-11
-3.51914e-09
-8.50795e-09
-1.3772e-08
-1.73781e-08
-1.53563e-08
-4.77166e-09
1.76953e-09
-4.44201e-09
1.25298e-09
1.31005e-08
7.18108e-09
-6.17801e-09
-8.69191e-09
1.16608e-09
-1.97927e-09
4.41873e-10
2.65224e-09
4.09184e-09
1.4993e-09
1.56233e-09
2.12667e-08
-7.72802e-09
-6.50868e-09
4.54534e-09
2.21874e-09
-1.18747e-09
-5.29707e-09
-3.96628e-09
-8.08217e-11
2.23344e-10
8.7165e-09
3.00192e-08
3.05148e-09
3.08898e-08
3.44825e-08
-5.36032e-09
-4.51478e-09
-6.03474e-10
8.44057e-10
7.08623e-10
-5.00629e-10
-2.20623e-09
-5.90357e-09
-1.08251e-08
-1.17417e-08
-9.18154e-09
-2.85461e-09
-1.65374e-09
-2.18277e-09
4.67658e-09
1.68785e-08
1.05946e-09
-1.47115e-08
-8.07066e-09
-4.39837e-09
-2.38876e-09
-1.87268e-10
3.53243e-09
6.95094e-09
1.11201e-09
3.97191e-09
1.19239e-08
-2.37393e-08
-1.09038e-08
3.62547e-10
-3.58856e-09
-7.61794e-09
-3.32431e-09
5.29408e-10
1.78119e-09
6.93708e-09
2.12858e-08
2.80016e-09
1.19528e-08
2.14352e-08
-7.14221e-09
-7.21623e-09
-1.2943e-10
1.5019e-09
7.89585e-10
-1.56776e-10
-4.5023e-10
-9.19678e-10
-2.3839e-09
-2.5394e-09
-1.55039e-09
-2.06965e-09
-2.3598e-09
-2.70822e-09
-1.97797e-09
-7.68913e-10
-2.24155e-08
-1.22331e-09
-2.43247e-09
-5.79371e-09
-7.08783e-09
-2.8644e-09
6.48037e-10
1.35422e-09
6.58269e-09
-1.06796e-09
-8.73675e-10
-1.38835e-08
-2.47018e-08
-6.3032e-09
-5.90992e-09
-7.88595e-09
-8.3661e-10
1.24863e-09
2.59142e-09
7.00352e-09
9.80458e-09
1.45767e-09
3.52852e-09
1.38503e-08
-5.52089e-09
-3.97068e-09
1.2647e-09
1.26708e-09
7.93356e-10
-1.05358e-11
-1.25525e-10
2.66446e-10
-6.73191e-11
8.13419e-10
2.94689e-09
2.2215e-09
-2.22379e-10
-2.03021e-09
-3.41344e-09
-1.14413e-08
-3.73543e-08
3.78323e-12
2.72293e-08
-3.17622e-09
-9.37554e-09
-8.57707e-12
4.16144e-09
-2.35095e-09
-4.60281e-09
2.64781e-09
-5.0478e-09
-1.72413e-08
-1.82663e-08
-7.51174e-09
-5.7347e-09
-2.75713e-09
1.57785e-09
7.03606e-11
2.92058e-09
5.5778e-09
2.18477e-09
-7.40449e-10
4.5083e-09
1.31398e-08
2.83989e-09
1.99749e-09
8.74669e-10
8.52398e-10
4.14306e-10
-6.40868e-10
-3.17648e-10
1.10663e-09
8.77504e-10
9.97171e-10
3.55037e-09
3.46585e-09
1.46933e-09
2.60174e-11
-1.41928e-09
-9.22416e-09
-2.96227e-08
-1.20863e-08
4.45016e-08
2.465e-09
-8.47731e-09
3.47439e-09
7.22707e-09
6.1248e-10
-5.90872e-09
-4.66233e-09
2.44457e-09
-1.06544e-08
-2.11877e-08
-9.75177e-09
-1.98464e-09
1.48158e-10
-1.17695e-09
-4.4114e-10
3.50913e-09
3.90455e-09
-4.513e-10
-1.58457e-09
6.4738e-09
1.50846e-08
8.63404e-09
2.15274e-09
1.30074e-09
9.05813e-10
8.05685e-12
-9.17132e-10
-5.09602e-10
1.09425e-09
1.25605e-09
4.98626e-10
2.91695e-09
3.74961e-09
1.62372e-09
6.15583e-10
6.66058e-10
-3.04227e-09
-1.09251e-08
-1.30012e-08
2.68245e-08
4.83669e-09
-9.07496e-09
1.25366e-09
5.0052e-09
7.9621e-10
-3.54128e-09
-6.36421e-09
-9.68254e-10
-1.60569e-09
-2.00584e-08
-1.23709e-08
-9.73968e-10
-4.25708e-10
-1.08886e-09
1.11056e-09
2.77871e-09
3.47622e-09
-5.44473e-10
-3.7129e-10
8.05225e-09
1.05355e-08
3.9841e-09
1.36165e-09
2.74957e-10
3.88952e-10
-2.72026e-10
-5.25272e-10
-1.10876e-09
-2.28817e-09
-1.14643e-09
-3.96186e-10
1.46769e-09
3.07858e-09
1.43988e-09
2.28925e-10
5.44837e-10
4.56034e-10
-2.25606e-10
-1.79329e-09
5.2677e-09
9.71958e-10
-3.46587e-09
7.96735e-11
2.08633e-09
6.49809e-10
-1.9218e-09
-5.81414e-09
-5.25007e-09
-5.6938e-10
-1.58787e-08
-1.5004e-08
-1.58459e-09
3.22379e-09
3.8404e-09
1.17595e-09
9.89072e-10
4.88516e-09
1.72663e-10
-3.08323e-10
5.76487e-09
5.80694e-09
1.64318e-09
4.10257e-11
-2.5697e-10
-2.50146e-09
-2.2812e-09
9.42518e-10
-5.24327e-10
-4.89044e-09
-3.09576e-09
1.05463e-10
5.73654e-10
2.57755e-09
1.71143e-09
2.75387e-10
-4.83702e-11
2.60822e-10
6.82197e-10
-7.06492e-10
-2.79631e-09
-1.07132e-09
1.51142e-10
-6.45328e-10
-7.35674e-10
-1.91148e-11
-1.06749e-09
-5.93001e-09
-7.32108e-09
-8.96688e-10
-1.10958e-08
-1.64801e-08
-3.06265e-09
6.42337e-09
5.26563e-09
-8.4023e-11
1.28382e-09
5.33784e-09
1.78434e-10
-1.42096e-09
2.66322e-09
3.27124e-09
1.36126e-09
-1.61888e-09
-7.21391e-09
-5.00227e-09
2.84306e-09
3.72742e-09
2.83747e-10
-1.41266e-09
1.70137e-09
5.75539e-09
2.54226e-09
1.52256e-09
2.71244e-09
1.00675e-09
-5.38296e-11
-3.20091e-10
-8.35181e-11
-1.30478e-09
-2.00591e-09
-1.0442e-10
3.1135e-10
-4.15953e-10
-6.9422e-10
-1.33823e-10
5.46634e-11
-3.57533e-09
-6.68018e-09
-7.91402e-10
-6.13162e-09
-1.41625e-08
-5.0842e-09
3.01559e-09
2.85702e-09
2.06924e-10
9.50972e-10
3.85093e-09
-2.76991e-11
-2.85658e-09
2.49508e-09
5.60248e-09
-1.26068e-09
-1.14591e-08
-7.08987e-09
7.09706e-09
8.18713e-09
3.08134e-09
5.07395e-12
1.90241e-10
4.13025e-09
8.2599e-09
6.57115e-09
1.24381e-09
1.68308e-09
1.75896e-09
2.67509e-10
-4.59308e-10
-8.46048e-10
-1.63486e-09
-1.64859e-09
-2.38186e-10
3.03008e-10
-1.32355e-10
-2.43608e-10
-8.67996e-12
2.02337e-10
-1.0114e-09
-3.95753e-09
-6.43291e-10
-3.06028e-09
-1.17396e-08
-5.96761e-09
2.21461e-09
1.67087e-09
-1.32014e-09
9.2066e-10
3.67024e-09
1.85522e-09
2.74277e-11
3.58461e-09
7.39325e-09
8.42394e-10
-2.91669e-09
1.06696e-08
1.6135e-08
7.13887e-09
1.93356e-09
-3.41811e-10
-2.13528e-09
1.31958e-09
4.4775e-09
5.5331e-09
2.88745e-09
8.94164e-10
1.68705e-09
6.90321e-10
-6.07962e-10
-1.62271e-09
-2.12032e-09
-1.19744e-09
4.92381e-10
6.0071e-10
-1.50422e-10
2.28156e-10
5.89985e-10
3.76989e-10
-5.33167e-11
-9.69909e-10
1.20333e-10
-1.66783e-09
-9.73192e-09
-5.00949e-09
1.63051e-09
-1.47876e-11
-1.62556e-09
-2.12446e-11
1.47086e-09
1.68636e-09
1.63213e-09
3.39089e-09
4.24716e-09
6.48779e-10
3.05793e-09
7.30999e-09
4.94862e-09
6.91389e-10
3.56007e-10
-2.60121e-10
-3.14441e-09
-2.81892e-09
1.49216e-09
3.14087e-09
3.20591e-09
1.66551e-09
1.66635e-09
1.55015e-09
-2.47372e-10
-8.29034e-10
3.62392e-10
1.56306e-09
8.33718e-10
-7.72812e-10
-6.98359e-11
1.35563e-09
1.45883e-09
6.422e-10
8.8748e-10
1.43558e-09
1.42537e-09
-8.9845e-10
-4.25196e-09
-4.18369e-10
1.9782e-09
3.28419e-10
-7.80787e-10
-5.23342e-10
1.42445e-11
-2.73523e-11
-1.89539e-10
-1.66224e-10
1.99934e-10
2.76849e-09
4.44359e-09
1.53813e-09
-5.69772e-10
2.24734e-09
1.13622e-09
-1.94164e-09
-4.20636e-09
-5.00555e-09
-2.17335e-09
3.36259e-09
3.34944e-09
2.46032e-09
2.36754e-09
1.77457e-09
-6.68936e-11
1.01152e-09
1.37744e-09
1.2341e-09
2.94048e-10
-4.8071e-11
2.01473e-10
9.14087e-10
2.756e-09
2.89132e-09
1.76494e-09
3.05235e-09
2.21905e-09
-8.00333e-10
8.01351e-11
2.18824e-09
1.5466e-09
3.06396e-10
-4.1676e-11
7.08395e-11
9.2187e-11
-1.87078e-10
-2.63607e-10
5.80246e-10
1.50058e-09
1.30925e-09
-1.81056e-10
-4.73099e-10
1.42666e-10
-6.54383e-12
-1.89054e-10
-2.40492e-09
-7.9092e-09
-8.45316e-09
-1.47229e-09
2.93458e-09
4.99632e-09
2.33582e-09
6.80241e-10
7.99946e-10
1.03215e-09
9.89748e-10
-3.09144e-11
-6.53387e-10
-3.14379e-11
6.12971e-10
1.50897e-10
3.73731e-10
2.73266e-09
4.89455e-09
2.13273e-09
1.44176e-09
4.36023e-09
1.40474e-09
-2.5925e-10
1.03821e-09
8.02611e-10
-4.90704e-11
-5.02574e-10
-1.04084e-09
-1.23129e-09
-5.8045e-10
-1.74804e-10
-2.65839e-10
-5.27089e-10
-9.52071e-10
-9.90141e-10
-8.23104e-10
-1.12167e-09
-1.29737e-09
-4.90656e-10
-1.68431e-09
-6.33297e-09
-1.00508e-08
-5.57039e-09
5.96843e-09
5.91971e-09
4.92765e-10
-1.36253e-09
5.06263e-10
1.54869e-09
5.3322e-10
-5.21218e-10
-1.39566e-09
-6.96153e-10
3.30515e-10
5.20039e-10
1.15482e-09
3.32254e-09
5.22478e-09
2.5261e-09
5.50037e-10
4.79568e-09
3.45639e-09
-7.02099e-10
-8.90789e-10
-9.60587e-10
-1.45706e-09
-7.68237e-10
-6.65923e-10
-1.13882e-09
-4.94775e-10
1.42145e-10
-5.38852e-10
-1.49175e-09
-1.41038e-09
-7.12876e-10
-2.76566e-10
-5.62523e-11
3.17134e-10
4.57508e-10
-1.25733e-09
-3.8665e-09
-3.26006e-09
-2.29791e-09
-2.74164e-09
-2.39327e-10
3.50035e-10
-8.20474e-10
-5.44891e-10
3.90475e-10
8.56356e-10
8.13524e-10
-3.65525e-10
-1.08555e-09
-1.24256e-10
8.49643e-10
1.57893e-09
2.47621e-09
2.23276e-09
1.4576e-09
2.46161e-09
3.55271e-09
1.71498e-09
-2.52027e-10
1.09133e-10
-1.24277e-10
-1.36514e-09
-1.17454e-09
-5.08245e-10
-5.73236e-10
-9.38779e-11
6.66003e-10
3.03834e-10
-2.99658e-10
9.38883e-11
7.98497e-10
1.02745e-09
6.95498e-10
4.04409e-10
4.85542e-10
-2.51765e-10
-1.63623e-09
-1.65744e-09
2.25839e-10
1.05626e-12
-2.27137e-09
-1.87595e-09
-2.77367e-10
4.13389e-10
5.60953e-10
5.91258e-10
2.52495e-10
-3.28855e-11
-8.96944e-11
-1.1874e-10
-5.99416e-11
3.13799e-10
1.27295e-09
1.85759e-09
3.66091e-10
2.69972e-10
2.36342e-09
1.52546e-09
-2.1796e-10
-3.49931e-10
-6.37225e-10
-1.42436e-09
-1.09253e-09
-3.16792e-10
-1.54461e-10
-1.34998e-10
1.04811e-10
-2.2326e-10
-1.04722e-09
-7.23075e-10
5.22948e-10
7.94248e-10
2.55457e-10
6.91736e-11
3.34519e-10
5.86681e-11
-8.52071e-10
-8.22458e-10
1.67364e-10
4.90151e-10
1.83008e-10
-1.63371e-10
-1.48745e-10
2.56395e-10
6.23317e-10
1.25427e-09
7.65784e-10
-8.22459e-11
-8.37645e-10
-7.42415e-10
-1.63357e-10
-3.47932e-10
-8.45851e-10
-3.91123e-10
1.01035e-10
-2.34157e-10
-8.65418e-10
-1.14428e-09
-7.86632e-10
1.43e-10
9.06083e-10
1.38255e-09
1.86461e-09
1.93274e-09
1.36612e-09
5.71955e-10
-2.69526e-10
-9.4594e-10
-9.46112e-10
-3.99315e-10
1.24951e-10
7.90196e-11
-2.2755e-10
-1.18893e-12
5.57105e-10
5.86569e-10
-2.67708e-10
-8.79069e-10
1.53489e-11
1.12256e-09
1.16945e-09
5.08689e-10
-3.87785e-11
2.22273e-10
1.01367e-09
4.35464e-10
2.61121e-09
5.21193e-09
6.20773e-09
-3.62757e-09
-1.50408e-08
-1.80227e-08
-1.36032e-08
-8.62148e-09
-7.68097e-09
-1.72205e-08
-3.78766e-08
-6.37191e-08
-9.00035e-08
-1.18816e-07
-1.52914e-07
-1.86099e-07
-1.93115e-07
-1.34705e-07
-3.49047e-10
9.06717e-08
4.58247e-08
8.73189e-09
-3.08549e-08
-7.30367e-08
-8.00418e-08
-6.59417e-08
-4.99215e-08
-3.72696e-08
-2.64667e-08
-2.02314e-08
-2.13597e-08
-3.03285e-08
-4.0336e-08
-2.42817e-08
1.47657e-08
7.27554e-09
-8.98274e-09
-2.65727e-10
7.76711e-10
1.79523e-09
2.16935e-09
1.14176e-09
-3.3482e-09
-8.68763e-09
-9.91621e-09
-4.37157e-09
4.62809e-09
1.18018e-08
1.20587e-08
6.13518e-09
-8.98902e-10
-7.18522e-09
-1.08707e-08
-1.10533e-08
-1.04525e-08
-1.18928e-08
-1.42987e-08
-6.62829e-09
2.72495e-08
6.58509e-08
2.71929e-08
-1.16975e-08
1.30266e-08
-3.88308e-08
-6.87123e-08
-4.25103e-08
-8.64809e-09
6.67236e-09
1.22961e-08
1.85616e-08
2.40236e-08
2.54745e-08
2.31164e-08
1.65682e-08
1.10317e-08
-3.29234e-09
-1.89443e-08
-1.33748e-08
-1.6961e-09
-1.22142e-09
1.20518e-09
-4.05892e-10
7.01521e-10
5.36397e-09
5.76573e-09
1.37931e-11
-5.13902e-09
-7.28805e-09
-1.21676e-08
-2.26492e-08
-2.97949e-08
-3.37584e-08
-4.42535e-08
-6.6716e-08
-9.96518e-08
-1.23885e-07
-1.0271e-07
-3.31677e-08
3.47738e-08
6.22766e-08
-1.56883e-08
-1.6743e-07
-4.87008e-08
4.19883e-08
1.46583e-08
-3.29278e-09
-4.50257e-08
-1.03782e-07
-1.42693e-07
-1.46348e-07
-1.27404e-07
-1.13447e-07
-1.21273e-07
-1.14086e-07
-5.00365e-08
4.41581e-09
-1.12791e-08
-4.03348e-08
-1.7682e-08
-3.77915e-09
5.54365e-10
-2.59806e-10
-4.90164e-10
3.24468e-09
4.58442e-09
1.34617e-09
-3.125e-09
-5.84635e-09
-8.496e-09
-1.31154e-08
-1.65711e-08
-1.72495e-08
-1.92106e-08
-2.44571e-08
-3.27436e-08
-3.53204e-08
-1.81881e-08
2.33283e-08
6.21537e-08
7.59055e-08
2.84528e-08
-1.13416e-07
-8.0785e-08
3.20645e-08
2.59603e-08
1.1249e-08
-2.37484e-08
-6.88469e-08
-9.46097e-08
-9.36363e-08
-7.73828e-08
-6.11048e-08
-6.1806e-08
-7.82974e-08
-7.00174e-08
-1.88978e-08
8.26748e-10
-2.91881e-08
-2.66863e-08
-9.65311e-09
-5.39448e-10
1.33644e-09
-2.42007e-10
4.24863e-10
1.66903e-09
1.34903e-09
5.60286e-10
9.85849e-10
1.29128e-09
-3.97656e-10
-3.30405e-09
-3.5569e-09
-2.54449e-09
-3.61154e-09
-5.64268e-09
-2.81472e-09
4.54154e-09
1.04032e-08
1.30991e-08
2.23372e-08
3.36214e-08
-3.40824e-09
-2.28976e-08
2.70733e-08
9.72114e-09
1.54741e-09
2.59682e-09
-2.65309e-09
-1.00916e-08
-1.17713e-08
-7.02317e-09
-2.05014e-09
-2.41419e-09
-7.2393e-09
-7.66549e-09
-2.32262e-09
7.9706e-10
-1.43941e-08
-2.73131e-08
-1.36627e-08
-3.42469e-09
2.26805e-09
2.12358e-09
2.01321e-10
1.76253e-12
-2.49336e-11
-4.97849e-10
7.40856e-10
4.50283e-09
6.79055e-09
5.3648e-09
3.27577e-09
1.23474e-09
-3.33968e-09
-6.8629e-09
-3.00846e-09
2.90736e-09
3.03263e-09
1.26038e-09
1.07578e-08
2.49961e-08
1.57695e-08
2.57899e-08
3.29381e-08
8.11067e-09
1.06265e-09
-8.94847e-10
-1.86294e-09
-1.00732e-09
-7.18871e-10
-1.77227e-09
-4.9891e-09
-8.99179e-09
-8.57528e-09
1.92032e-09
1.59374e-08
1.23677e-08
-2.79873e-09
-1.60659e-08
-3.11157e-09
-6.14077e-09
5.52402e-10
3.75106e-09
1.42085e-09
-1.40791e-10
-4.44903e-10
-7.18589e-10
-7.46269e-10
-9.87519e-11
3.02721e-09
6.60738e-09
6.28534e-09
1.27614e-09
-7.04846e-09
-1.04202e-08
-3.72163e-09
1.71377e-09
1.11847e-09
1.45485e-09
1.44805e-08
3.19474e-08
1.46209e-08
2.68863e-08
3.2675e-08
3.66195e-09
3.33294e-09
2.57714e-09
-8.97836e-10
-2.34728e-09
-2.98098e-09
-6.03003e-09
-1.3186e-08
-2.09709e-08
-2.12022e-08
-1.10236e-08
5.80105e-09
1.85736e-08
1.19169e-08
-6.56553e-09
4.8515e-09
-2.16794e-10
-1.43218e-09
3.12679e-09
2.36424e-09
1.43637e-10
-4.79915e-10
1.23978e-10
2.67074e-09
2.47586e-09
-1.01557e-09
2.68505e-09
7.85772e-09
2.02854e-09
-1.13565e-08
-1.19856e-08
-1.83605e-09
2.45626e-09
5.85678e-10
1.67375e-09
1.43584e-08
2.85601e-08
1.11916e-08
1.50277e-08
2.23771e-08
-1.89629e-09
-1.08311e-09
2.30167e-09
7.97912e-10
-3.71794e-11
-7.29264e-11
-2.60318e-09
-1.00563e-08
-1.95538e-08
-2.16189e-08
-1.55073e-08
-5.32924e-09
7.99008e-09
1.79138e-08
1.68886e-09
2.98067e-10
4.84561e-09
4.30728e-10
2.44064e-09
1.73938e-09
-1.05442e-10
-7.47433e-10
-6.74111e-10
1.23057e-09
5.12726e-09
-1.29206e-10
-3.88264e-09
7.27127e-09
4.0997e-09
-1.07937e-08
-9.45386e-09
1.33249e-09
4.20838e-09
9.9599e-10
1.87401e-09