/*--------------------------------*- C++ -*----------------------------------*\
| =========                 |                                                 |
| \\      /  F ield         | OpenFOAM: The Open Source CFD Toolbox           |
|  \\    /   O peration     | Version:  5.0                                   |
|   \\  /    A nd           | Web:      www.OpenFOAM.org                      |
|    \\/     M anipulation  |                                                 |
\*---------------------------------------------------------------------------*/
FoamFile
{
    version     2.0;
    format      ascii;
    class       volScalarField;
    location    "50.4676134421789371";
    object      dissuv;
}
// * * * * * * * * * * * * * * * * * * * * * * * * * * * * * * * * * * * * * //

dimensions      [0 2 -3 0 0 0 0];

internalField   nonuniform List<scalar> 
60000
(
1.53411e-10
-1.39993e-10
6.55167e-10
1.44264e-09
4.01742e-10
-5.56355e-10
-7.44994e-11
-5.47177e-10
-2.32843e-09
-1.75257e-09
5.3818e-11
1.7924e-10
-4.48394e-11
-2.44536e-10
-6.5949e-10
-1.11914e-09
-1.37921e-09
-2.78446e-09
-6.86344e-09
-1.30574e-08
-2.11246e-08
-2.30421e-08
-1.32337e-08
-3.95869e-09
4.12372e-09
2.72057e-08
6.23443e-08
7.14112e-08
3.60041e-08
4.23638e-09
-8.22129e-09
-1.14165e-08
-3.07889e-09
9.61406e-09
8.75337e-09
6.35935e-09
3.27371e-09
-4.17432e-09
-1.69295e-09
4.74752e-10
1.3138e-08
8.52686e-09
2.13888e-09
-9.64627e-10
-2.42897e-10
1.32168e-09
2.21472e-09
-4.15798e-10
-6.73834e-09
-6.99707e-09
3.67281e-09
1.05422e-08
4.89712e-09
-1.0536e-09
-3.40014e-09
-3.12504e-09
4.51719e-10
1.55136e-09
-1.33867e-09
-2.21324e-09
-7.23335e-09
-2.88481e-08
-2.37744e-08
2.57659e-10
8.74477e-09
2.67787e-08
6.97496e-08
1.26029e-07
1.28154e-07
4.44446e-08
6.21772e-10
-2.17205e-09
-5.51586e-09
1.39005e-08
5.31432e-08
3.0479e-08
3.76268e-09
2.08979e-09
-4.34771e-09
6.38138e-09
1.2023e-08
1.97454e-08
1.31857e-08
7.71603e-09
1.95754e-09
2.88149e-09
9.1898e-09
1.71948e-08
1.5842e-08
2.71037e-09
2.00015e-09
9.68014e-09
7.49849e-09
1.59e-09
3.58882e-09
2.49233e-10
8.54718e-10
-6.43134e-09
-1.3935e-08
3.10824e-08
9.84395e-08
8.44127e-08
5.00795e-08
4.72745e-08
7.69345e-09
-5.58787e-08
-1.18518e-07
-1.60361e-07
-1.45772e-07
-8.50178e-08
-1.12599e-08
6.31672e-08
6.94394e-08
1.36349e-08
-2.92032e-08
-9.14599e-09
-2.65822e-10
4.33644e-08
2.88613e-08
5.15321e-10
-1.30792e-09
8.36684e-09
6.10102e-09
-3.02357e-09
-4.97024e-09
-1.53938e-09
9.12538e-09
2.62729e-08
3.51888e-08
1.58368e-08
1.06465e-09
4.04293e-09
3.31823e-09
3.54922e-09
1.08028e-08
5.06806e-09
-1.6417e-09
-1.54017e-08
-3.46929e-08
2.16442e-08
1.06065e-07
8.67921e-08
2.63001e-08
1.4343e-08
-1.76226e-08
-5.37369e-08
-6.27249e-08
-5.71246e-08
-4.80871e-08
-3.27061e-08
2.71635e-09
5.45549e-08
7.18272e-08
3.85077e-08
-1.41739e-08
-2.96409e-08
-7.0551e-09
4.21861e-08
6.30532e-08
1.43376e-08
4.97555e-10
9.3391e-09
1.85764e-08
6.79636e-09
2.95506e-10
4.60242e-10
4.15187e-09
1.6919e-08
4.10029e-08
3.55653e-08
5.60585e-09
5.37697e-09
1.64155e-08
1.23394e-08
5.5306e-09
-1.90349e-09
3.74492e-09
1.21698e-08
-1.8478e-08
-8.49158e-09
1.02844e-07
9.38078e-08
1.16287e-08
1.17401e-08
6.41465e-09
-1.43335e-08
-1.26138e-08
-5.80581e-09
3.18124e-09
1.44184e-08
9.2817e-09
5.8336e-09
2.15141e-08
2.90313e-08
8.21581e-09
-7.68459e-09
8.02452e-09
1.95731e-08
5.0574e-08
3.57913e-08
1.90975e-08
1.3856e-09
1.67612e-08
1.86112e-08
1.21898e-08
1.09325e-08
6.19575e-09
1.72876e-09
2.47172e-08
5.41619e-08
3.09153e-08
3.08425e-09
9.55046e-09
1.2517e-08
-4.2819e-09
-1.50986e-08
7.54546e-09
3.46847e-08
2.88233e-08
-2.44729e-08
7.48625e-08
1.31825e-07
2.97123e-08
4.68215e-09
-4.31595e-09
-5.86405e-09
2.98041e-11
7.68016e-10
1.67682e-09
1.087e-08
2.48878e-08
1.93797e-08
4.40304e-09
4.33894e-09
1.53332e-08
6.97509e-09
3.78172e-09
1.07174e-08
1.7009e-08
3.95682e-08
3.12764e-08
7.60656e-09
1.15511e-10
1.05334e-08
1.3278e-08
1.73031e-08
1.64196e-08
7.0427e-09
2.2231e-09
3.44008e-08
5.9275e-08
2.24675e-08
4.42541e-09
3.4974e-09
-1.30915e-08
-2.15525e-08
1.08991e-08
2.5421e-08
4.43528e-08
1.6427e-08
1.32763e-08
1.55339e-07
7.37288e-08
1.59679e-09
-1.47301e-08
-1.83717e-09
3.00407e-09
9.57203e-10
2.87632e-10
8.20384e-10
6.82242e-09
2.08022e-08
2.93282e-08
1.57925e-08
2.77136e-09
1.37824e-08
9.91901e-09
3.64028e-09
5.03908e-09
1.90749e-08
2.07148e-08
1.51617e-08
-1.60582e-09
8.30327e-10
4.619e-09
8.69918e-09
1.61432e-08
2.2182e-08
1.83489e-08
8.00529e-09
3.90028e-08
5.5075e-08
1.54744e-08
-5.93242e-09
-2.44466e-08
-1.25037e-08
5.93721e-09
2.85049e-09
2.473e-08
5.94795e-08
-7.39795e-09
1.00166e-07
1.06369e-07
5.86401e-09
-1.4556e-08
2.21168e-09
2.31268e-09
4.27409e-10
2.63644e-10
2.64221e-10
1.45186e-10
4.94792e-09
1.94989e-08
3.51802e-08
2.30895e-08
2.98998e-09
1.10785e-08
9.86444e-09
2.67759e-09
5.41607e-09
9.21492e-09
1.33559e-08
1.52779e-09
1.09959e-09
3.72195e-09
2.98434e-09
4.05288e-09
1.18801e-08
3.24874e-08
3.91153e-08
4.33781e-09
4.92181e-08
4.07121e-08
-7.69279e-09
-1.77557e-08
-6.71265e-10
-9.73651e-09
-9.56393e-09
4.4744e-09
4.25994e-08
3.19052e-08
1.52735e-08
9.45477e-08
1.47569e-08
-3.52281e-09
1.90712e-09
-4.94705e-10
-2.01363e-10
1.71699e-10
1.38635e-10
-3.26501e-10
1.52707e-10
4.95814e-09
1.53384e-08
2.59865e-08
1.5975e-08
9.59321e-10
6.7167e-09
6.5735e-09
1.61239e-09
3.09963e-09
9.73611e-09
4.42226e-09
-9.89915e-12
5.82809e-09
6.47949e-09
2.09488e-09
-3.55975e-10
8.32551e-09
4.12113e-08
3.92737e-08
2.35824e-09
5.71077e-08
2.10249e-08
2.58625e-09
-4.43987e-09
-1.06642e-08
-5.39581e-09
9.65892e-11
1.24764e-08
4.13021e-08
4.92256e-09
3.77796e-08
2.25912e-08
7.27831e-09
-8.81593e-12
-1.3761e-09
-1.54052e-10
2.17599e-10
8.81796e-11
-9.40045e-10
-8.60176e-10
1.28137e-09
4.18535e-09
7.47425e-09
9.85638e-09
4.92221e-09
-7.59581e-11
1.71134e-09
9.25531e-10
9.72447e-10
6.172e-09
2.71312e-09
-2.03836e-09
7.62309e-09
8.72875e-09
3.13775e-09
5.44701e-10
2.08403e-10
9.68565e-09
4.05975e-08
1.33785e-08
2.49285e-08
5.40732e-08
1.65589e-08
-1.77773e-09
-4.75161e-09
-2.25055e-09
7.04568e-10
3.46236e-09
1.7691e-08
2.42106e-08
7.47368e-09
1.68595e-08
7.20018e-09
6.48414e-10
7.08051e-11
1.1611e-10
2.61119e-10
5.1876e-10
-6.50712e-10
-1.54848e-09
9.48043e-10
3.01269e-09
2.35936e-09
1.90571e-09
1.79849e-09
3.86106e-10
-1.09709e-09
-7.68794e-10
4.40132e-10
3.36412e-09
7.48658e-10
3.72279e-10
5.12363e-09
4.86224e-09
3.64761e-09
2.29268e-09
1.03029e-09
1.46308e-09
1.27579e-08
2.48638e-08
2.44453e-09
4.38451e-08
2.68218e-08
5.32597e-09
-4.48995e-09
-2.51421e-09
3.6599e-09
3.74825e-09
5.48231e-09
1.64964e-08
1.26949e-08
3.59884e-09
2.17423e-09
3.25401e-09
1.76217e-09
2.17692e-10
2.61322e-10
1.2292e-09
1.75047e-09
-3.09969e-10
1.53632e-10
4.9956e-09
4.92954e-09
2.00212e-09
6.08899e-10
3.34372e-11
-4.79274e-10
-4.56226e-10
4.18372e-11
1.488e-09
2.94295e-09
3.014e-09
1.59116e-09
1.01669e-09
2.79558e-09
3.66698e-09
1.374e-09
9.7017e-10
6.13251e-09
1.51519e-08
4.88988e-09
2.17144e-08
2.87927e-08
1.05934e-08
-5.85636e-09
-1.92783e-09
7.88662e-09
4.84457e-09
4.53608e-09
7.78114e-09
1.11883e-08
3.07183e-09
2.3319e-09
3.42043e-09
1.88326e-09
3.36907e-10
5.2135e-11
1.11466e-09
4.23183e-09
5.01039e-09
2.1958e-10
4.09953e-09
1.02349e-08
6.25228e-09
1.91457e-09
1.0821e-10
6.95226e-11
3.95218e-10
5.38916e-10
3.64676e-10
3.07331e-09
2.87536e-09
1.17021e-09
4.72249e-10
8.69832e-10
2.8811e-09
2.47205e-09
6.36391e-10
4.94073e-09
1.20864e-08
4.84404e-09
1.05368e-08
2.46667e-08
1.03696e-08
-4.86227e-09
9.57361e-11
6.08231e-09
4.86812e-09
3.43172e-09
6.54366e-09
6.08132e-09
5.364e-09
2.24253e-09
7.28408e-10
-8.01935e-11
2.86466e-10
2.00174e-10
2.58944e-10
3.60203e-09
9.48391e-09
7.49855e-09
4.84266e-10
1.02724e-08
1.17599e-08
4.79272e-09
7.17285e-10
1.0093e-10
4.9533e-10
3.6421e-10
-5.40833e-11
6.13201e-10
9.32919e-10
7.12382e-10
6.44299e-10
-3.50107e-10
-4.79143e-10
2.05897e-09
1.52473e-09
1.13389e-09
6.48678e-09
5.52173e-09
3.42909e-09
1.24939e-08
3.76261e-09
-1.45534e-09
9.99797e-11
-2.25708e-10
3.94744e-09
4.57782e-09
4.3426e-09
5.10028e-09
4.5389e-09
9.28013e-10
-2.26424e-09
3.69591e-10
2.24735e-09
2.65801e-10
-7.9064e-10
1.768e-09
7.95698e-09
1.33126e-08
5.25293e-09
3.2983e-09
1.41865e-08
9.33196e-09
2.79055e-09
2.2169e-10
4.31798e-10
3.42823e-10
-1.21343e-09
-1.04871e-09
-2.84694e-10
1.19649e-10
3.41944e-10
4.89622e-11
-7.57592e-10
-1.32625e-10
1.11211e-09
-2.07322e-10
1.74008e-09
3.8537e-09
6.41868e-10
-5.17121e-12
-1.55551e-09
-4.63531e-10
-4.20256e-10
-2.31714e-09
7.5206e-10
4.42231e-09
4.60262e-09
6.10505e-09
2.00313e-09
-5.1655e-09
-1.91941e-09
3.34119e-09
1.16905e-09
-4.98908e-10
2.92641e-10
1.69446e-09
4.75589e-09
1.11026e-08
1.23243e-08
1.89918e-09
7.25856e-09
1.29418e-08
6.28906e-09
1.26103e-09
5.3868e-10
3.87656e-10
-1.15227e-09
-1.71113e-09
-1.9097e-10
9.94197e-10
5.82976e-10
-3.61243e-10
-4.02809e-10
-1.96255e-10
3.73497e-10
-5.05044e-10
2.62823e-10
2.61971e-09
-1.761e-09
-5.57106e-09
-2.67168e-09
-9.29134e-11
-1.24471e-09
-2.14617e-09
1.23902e-10
2.9634e-09
3.61819e-10
-1.77708e-09
-1.27535e-09
2.60311e-09
4.4339e-09
-4.78064e-09
-5.90336e-09
6.59154e-10
1.70818e-09
1.28146e-09
2.72393e-09
8.6569e-09
1.48178e-08
9.1217e-09
2.51249e-10
8.03905e-09
9.09824e-09
3.56064e-09
8.19394e-10
-6.97219e-11
-1.31074e-09
-1.65218e-09
-8.53396e-11
1.2543e-09
-1.24429e-09
-2.24464e-09
-5.57122e-10
3.65669e-10
4.00074e-10
-2.76297e-10
-1.95759e-10
1.44781e-09
-2.66126e-09
-4.73179e-09
-5.43342e-10
-5.33933e-10
-2.3507e-09
-9.02279e-10
1.68581e-09
3.64401e-09
1.01356e-09
-3.01898e-09
2.65303e-10
6.18203e-10
-5.07936e-09
-5.03689e-09
4.71677e-10
-4.14824e-09
-4.58229e-09
5.21406e-10
6.45648e-10
5.00749e-09
1.77543e-08
1.55927e-08
5.05106e-09
-8.16816e-10
5.89047e-09
6.5539e-09
2.41679e-09
1.12177e-09
-7.42177e-11
8.87848e-10
2.05989e-09
-2.21209e-09
-3.48682e-09
-1.21772e-10
8.94239e-10
1.0077e-09
6.29766e-10
1.88427e-10
4.71368e-10
-1.12925e-11
-2.24164e-09
-1.27986e-09
5.53538e-10
-2.34677e-10
-7.78892e-10
6.32021e-10
1.8215e-09
2.53569e-09
2.61555e-09
9.08003e-10
-2.41178e-09
-6.34473e-09
-2.6024e-09
-1.42588e-09
-1.24994e-08
-1.02054e-08
-1.28419e-09
3.64459e-09
3.18787e-09
1.44149e-09
1.16338e-08
2.19732e-08
1.25426e-08
1.97367e-09
-7.20623e-10
3.33234e-09
3.69041e-09
-4.58038e-11
1.50056e-09
2.19158e-09
-6.33198e-11
-2.27493e-09
-1.9119e-12
1.26898e-09
3.28613e-10
-2.6482e-10
9.3837e-10
1.29348e-09
1.45506e-09
5.69171e-10
-1.16505e-09
-6.19574e-10
8.75122e-10
1.30936e-09
6.4613e-10
1.34664e-09
2.32526e-09
1.3162e-09
6.75681e-10
1.15268e-09
6.48108e-10
3.20866e-10
-1.29613e-09
-3.62168e-09
-2.40225e-09
8.42455e-11
-2.79808e-10
-2.76794e-10
3.18214e-09
7.40078e-09
6.91421e-09
1.09408e-08
1.32928e-08
5.64596e-09
7.56201e-10
1.97728e-10
-1.26454e-10
-2.81982e-10
-1.98666e-11
1.34897e-10
-2.91728e-10
-1.54195e-11
4.46455e-10
3.19596e-10
1.49967e-10
-3.67717e-10
4.02135e-10
1.78781e-09
3.73807e-10
-9.69861e-10
-5.78653e-12
1.50538e-09
2.24859e-09
1.68026e-09
3.2722e-10
-1.54716e-10
8.55832e-10
1.25758e-09
2.15715e-10
-2.71911e-10
1.92282e-10
5.03476e-11
-1.82772e-10
1.48005e-11
1.54084e-10
3.42189e-10
1.1178e-09
2.10864e-09
2.42284e-09
2.65259e-09
3.24435e-09
2.43353e-09
5.01408e-09
4.52681e-09
8.59653e-10
-5.10612e-10
-4.09422e-10
2.01632e-10
-5.55196e-11
-1.69733e-10
2.12327e-10
2.50518e-10
-1.37262e-10
8.00013e-11
8.03187e-10
9.71824e-10
2.40417e-10
2.92451e-10
5.67146e-10
4.25295e-10
1.46515e-10
-5.20637e-10
3.27226e-10
1.75171e-09
2.01991e-09
1.24573e-09
4.44134e-10
5.68108e-10
5.28257e-10
-3.48459e-11
-4.15169e-10
-4.95771e-10
-4.03298e-10
-2.4773e-10
-1.17081e-10
2.32628e-10
1.11943e-09
1.47988e-09
1.14774e-09
1.77485e-09
1.86651e-09
5.94059e-10
7.74442e-10
1.90638e-09
1.0834e-09
1.599e-10
1.83949e-10
2.34372e-10
4.8794e-10
5.2328e-11
1.38054e-11
-1.88044e-10
-8.34528e-10
-6.14121e-10
2.83752e-10
8.37126e-10
1.17902e-09
1.3215e-09
9.12555e-10
1.79053e-10
-1.57202e-10
-2.27168e-10
-3.49394e-10
1.89041e-10
8.61164e-10
6.85717e-10
2.23723e-10
3.58886e-10
2.87771e-10
-2.94438e-10
-5.83579e-10
-4.50924e-10
-3.42332e-10
-6.40507e-10
-8.78713e-10
-2.50777e-10
7.73892e-10
9.92677e-10
2.66431e-10
3.47438e-10
1.23679e-09
4.42374e-10
-5.43833e-10
-1.19267e-11
4.20759e-10
1.83885e-10
-7.67028e-11
2.15516e-11
2.38815e-10
3.10866e-10
4.52046e-10
5.04759e-11
-1.30556e-09
-1.63623e-09
-4.65295e-11
6.87117e-10
2.64815e-10
1.8723e-09
2.69618e-09
1.00685e-09
-1.82924e-10
4.17845e-10
1.22988e-09
7.8423e-10
5.61772e-11
-1.82225e-10
-2.49122e-10
-2.09655e-10
1.92469e-11
2.27749e-10
3.07051e-10
3.14884e-10
2.25446e-10
7.85008e-11
7.99811e-12
-6.64874e-12
1.47651e-11
1.84816e-10
4.02203e-10
5.21849e-10
6.86239e-10
2.89754e-10
-5.57903e-10
-4.33065e-10
1.35286e-10
1.81973e-10
-4.36572e-11
-1.93767e-11
-4.22427e-10
-2.77587e-11
5.06187e-10
2.63908e-10
-1.74183e-10
-3.17638e-10
-1.08201e-10
-9.35285e-11
-7.43676e-10
-4.94356e-10
1.35684e-09
2.34545e-09
1.37048e-09
5.09912e-10
9.12343e-10
1.37938e-09
1.14853e-09
6.52745e-10
2.35348e-10
-2.31826e-11
-9.82349e-11
-9.90441e-11
5.6515e-11
5.29118e-10
8.53122e-10
5.19285e-10
-1.26128e-10
-3.9941e-10
-2.78124e-10
9.00567e-11
5.95124e-10
8.78321e-10
3.31696e-10
-1.53851e-10
1.17531e-10
1.58176e-10
6.18614e-11
3.75589e-10
4.96417e-10
-6.38084e-10
2.93784e-11
-4.0155e-10
-1.46659e-09
-9.97672e-10
2.00459e-09
3.43266e-09
1.78135e-09
-8.79367e-10
-2.26211e-09
-2.9824e-09
-3.62005e-09
-3.40429e-09
-1.36099e-09
3.33208e-09
1.05688e-08
1.84627e-08
2.32512e-08
1.55112e-08
1.09407e-09
-1.24968e-09
-1.04441e-08
-1.42646e-08
-5.63521e-09
2.51747e-09
8.77088e-09
1.12279e-08
3.76451e-09
-8.24763e-09
-1.90696e-08
-1.7279e-08
6.19065e-09
4.28301e-08
6.35158e-08
2.92884e-08
-9.51921e-09
1.43385e-08
8.81552e-09
6.73599e-10
-7.90543e-10
-1.67928e-10
1.80184e-10
-5.4802e-10
-1.64236e-09
-1.26842e-09
2.27099e-09
6.40256e-09
6.30774e-09
1.30833e-09
-1.56824e-09
-2.53801e-09
-1.84989e-09
-1.19912e-09
-1.02492e-09
1.41074e-09
9.16299e-09
1.90546e-08
3.58167e-08
6.32001e-08
4.66682e-08
1.24884e-08
3.9385e-08
2.3909e-09
-2.9077e-08
-9.23164e-09
1.54425e-08
3.49084e-08
2.85429e-08
-1.00357e-09
-1.46493e-08
-9.52311e-09
3.47169e-09
3.38048e-08
1.01462e-07
1.99151e-07
1.11849e-07
-6.36245e-09
3.83659e-08
1.08459e-08
-9.62156e-10
3.85501e-11
9.24612e-10
7.14733e-10
1.38143e-09
1.51838e-09
-1.12527e-09
-5.86655e-09
-6.48183e-09
7.0456e-09
1.98053e-08
1.88091e-08
1.33384e-08
7.24e-09
1.73287e-09
-7.91734e-10
-1.7582e-09
-1.80361e-08
-4.75573e-08
-4.16659e-08
-5.95069e-08
-8.57741e-08
1.55914e-07
2.40196e-07
9.11574e-08
4.43558e-08
-1.32498e-08
-7.83017e-08
-8.78298e-08
-4.72117e-08
1.12998e-08
4.7946e-08
2.66948e-08
-3.74714e-08
-1.05143e-07
-1.13955e-07
2.90143e-08
2.58294e-08
3.90255e-08
6.44303e-08
7.57081e-09
4.50193e-09
3.02349e-09
1.85044e-09
9.31278e-10
-1.30496e-09
-4.07014e-09
-8.19039e-09
-1.08232e-08
2.56849e-09
2.34278e-08
2.2173e-08
1.34432e-08
6.5575e-09
-6.30167e-10
-4.54667e-09
-3.95463e-09
-1.3796e-08
-3.76745e-08
-3.86392e-08
-2.38111e-08
-5.56239e-08
1.29266e-07
2.48851e-07
7.5837e-08
2.56116e-08
-7.34843e-09
-5.24125e-08
-5.54572e-08
-2.48772e-08
1.50926e-08
3.84707e-08
2.79855e-08
-3.59066e-09
-4.20021e-08
-8.25715e-08
-1.02137e-07
-5.24201e-08
2.75007e-08
1.30044e-07
4.81615e-08
1.86968e-08
4.35519e-09
1.71e-09
-4.3562e-10
-3.10506e-10
-2.38542e-10
-1.81936e-09
-4.33391e-09
-1.42551e-09
1.70828e-08
2.00851e-08
8.98898e-09
3.49068e-09
-2.77846e-09
-5.09121e-09
3.36752e-09
9.3777e-10
-1.07156e-08
-7.90578e-09
3.59311e-08
1.18918e-08
3.56597e-08
1.91814e-07
5.76365e-08
1.184e-08
1.57504e-08
-1.85122e-09
-3.27894e-09
4.28742e-10
1.30685e-09
4.30608e-09
5.38301e-09
5.68266e-10
-8.4909e-09
-2.0095e-08
-1.06288e-08
-6.6069e-09
5.40787e-09
1.21043e-07
1.06632e-07
6.13116e-08
1.05615e-08
2.08034e-09
-2.47689e-09
5.33813e-10
5.67346e-09
6.60046e-09
3.24292e-09
6.86746e-10
7.57621e-09
1.99596e-08
8.98519e-09
-2.9615e-09
-8.43221e-09
-4.5913e-09
5.16913e-09
-3.33919e-09
-5.27092e-09
8.67731e-10
3.16109e-08
5.71598e-08
-3.70323e-09
1.1076e-07
6.38339e-08
9.42117e-09
2.08381e-09
-1.65005e-09
1.76459e-09
2.40896e-09
-3.6922e-10
-3.5581e-09
-2.38344e-09
2.37978e-09
4.01052e-09
2.65547e-10
9.16353e-09
4.6158e-08
1.7356e-08
3.61562e-08
1.32539e-07
1.10546e-07
3.88661e-08
8.24257e-09
-2.8002e-09
-6.55223e-10
8.24773e-09
1.67115e-08
1.23761e-08
9.27698e-09
9.48658e-09
1.47607e-08
1.21166e-08
-6.38326e-09
-1.29908e-08
-9.42017e-10
-3.52076e-09
-1.47513e-08
-6.75643e-09
1.11656e-09
9.76282e-09
4.12111e-08
2.18786e-09
4.18464e-08
6.44898e-08
1.33619e-08
-1.20543e-08
-7.19668e-09
-1.017e-10
-5.49357e-10
-3.38817e-09
-4.47025e-09
-1.06095e-09
7.30674e-09
1.5387e-08
1.16902e-08
3.46626e-09
2.00459e-08
3.97082e-08
5.04593e-09
6.66644e-08
9.05583e-08
8.74074e-08
2.8569e-08
1.42802e-09
-2.94177e-09
6.29026e-09
2.08044e-08
3.03193e-08
1.51762e-08
2.76727e-08
2.47471e-08
1.18196e-08
-3.27759e-09
-9.7517e-09
-6.44483e-11
-1.36277e-08
-1.35908e-08
-2.7583e-09
1.56664e-09
1.4292e-09
1.92804e-08
1.17942e-08
5.79689e-09
5.48312e-08
1.06671e-08
-1.70662e-08
-7.09169e-09
3.59043e-10
-3.85324e-10
-2.15429e-09
-4.15075e-09
-4.0813e-09
4.21935e-09
1.79409e-08
2.40529e-08
1.39913e-08
6.47002e-09
1.90176e-08
2.13139e-08
1.60752e-08
3.44846e-08
9.97464e-08
6.57513e-08
1.03824e-08
-5.4402e-09
1.71926e-09
1.39489e-08
2.93132e-08
3.34783e-08
2.11021e-08
6.14972e-08
3.37203e-08
6.49923e-09
2.10172e-09
-2.24295e-09
-1.18799e-08
-3.71034e-09
1.03995e-09
1.61516e-09
-1.26907e-09
3.8176e-09
1.52303e-08
-3.40023e-09
3.92029e-08
5.81253e-09
-1.32572e-08
-2.84394e-09
5.55246e-10
-2.13704e-10
-2.48893e-10
-8.49616e-10
-2.51544e-09
-1.05855e-09
8.59047e-09
1.82281e-08
1.89317e-08
9.55397e-09
5.37473e-09
1.41705e-08
2.71877e-08
3.01184e-08
4.89088e-08
8.60594e-08
1.63093e-08
-9.2336e-09
1.36811e-09
4.15008e-09
9.22306e-09
2.78489e-08
2.38876e-08
4.17028e-08
8.61789e-08
3.33466e-08
8.91131e-09
-2.93736e-10
-8.00307e-10
2.71397e-09
1.94477e-09
1.28778e-09
-2.98805e-09
-4.0309e-09
1.14942e-08
-3.21444e-10
1.98704e-08
3.04274e-09
-4.39679e-09
-5.69431e-10
-5.20005e-10
-1.0031e-10
7.1961e-10
1.13496e-09
-3.52963e-10
-1.69056e-09
1.55922e-09
7.22385e-09
9.51955e-09
8.26973e-09
3.90203e-09
4.06372e-09
2.6478e-08
3.79232e-08
1.74021e-08
5.00124e-08
1.67665e-08
-2.71038e-09
1.06255e-09
-4.7476e-09
-5.23356e-09
7.34109e-09
2.19742e-08
1.28721e-08
6.42425e-08
7.00111e-08
1.7039e-08
4.65655e-09
8.09573e-09
5.0076e-09
1.75319e-09
1.73022e-10
-2.59302e-09
-3.61357e-09
4.28303e-09
2.551e-09
2.3967e-09
1.99653e-09
-8.47737e-10
-2.10902e-09
-6.43742e-10
1.73249e-10
9.92509e-10
2.00048e-09
1.51303e-09
-1.23132e-09
-3.70477e-10
3.02593e-09
3.63779e-09
3.04114e-09
2.27292e-09
1.72092e-09
1.24948e-08
2.75305e-08
2.17875e-08
-1.47239e-08
1.66719e-08
1.72254e-08
-1.82862e-09
-1.06195e-08
-7.93548e-09
-1.07391e-09
6.87688e-09
7.47631e-09
1.76033e-08
5.38969e-08
2.13468e-08
3.13906e-09
8.12173e-09
3.42376e-09
-1.1038e-09
-5.41465e-10
2.46608e-10
6.34858e-10
9.66149e-10
1.55017e-10
-5.32292e-09
-3.9118e-09
-2.5668e-09
-6.74972e-10
-8.39634e-11
2.05548e-10
8.51134e-10
2.11378e-09
4.03355e-09
1.85557e-09
-1.00721e-09
3.76007e-09
5.14135e-09
2.5829e-09
9.04213e-10
1.77086e-09
3.08042e-09
8.77745e-09
2.05952e-08
-3.64997e-08
-6.39904e-10
2.45953e-08
-3.17899e-09
-9.71315e-09
-4.27927e-09
2.00989e-10
4.33439e-09
1.97446e-09
4.607e-09
2.70982e-08
1.93442e-08
3.27408e-09
1.39283e-09
-2.91617e-09
-4.39528e-09
1.75674e-10
4.30357e-09
5.64313e-09
2.44164e-09
-2.7991e-09
-5.65079e-09
-1.88271e-09
1.80345e-09
6.05201e-10
-5.73053e-10
-2.76266e-11
6.78701e-10
1.57725e-09
6.97809e-09
1.01736e-08
1.86291e-09
2.93965e-09
8.68142e-09
5.87192e-09
1.64556e-09
1.19743e-09
1.17633e-09
6.90822e-10
1.37993e-09
-1.00221e-08
1.31293e-10
6.37968e-09
-6.29047e-10
-1.26903e-09
-2.05898e-10
1.39792e-09
6.1649e-09
4.28535e-09
-6.73742e-10
1.57786e-08
1.99624e-08
6.9064e-09
-4.14358e-09
-7.44401e-09
-4.59897e-09
5.55327e-10
6.50425e-09
8.39505e-09
4.04336e-09
-1.96699e-09
8.42108e-10
3.46491e-09
7.70193e-10
-2.74227e-09
-2.47647e-09
1.34314e-09
1.16703e-09
-1.33674e-10
6.47083e-09
1.77394e-08
1.28148e-08
1.64278e-09
8.1644e-09
7.79531e-09
3.86985e-09
6.69964e-10
1.27699e-09
3.46206e-10
-2.56912e-09
-6.02071e-10
5.96003e-10
-2.11877e-10
3.94287e-10
1.80764e-10
-1.85336e-10
8.71058e-10
3.88484e-09
5.14632e-09
-1.15952e-09
7.03658e-09
1.84425e-08
8.76879e-09
-4.95062e-09
-4.12509e-09
-9.58839e-10
-1.29766e-09
4.36562e-09
8.90115e-09
4.85031e-09
2.69685e-10
2.07997e-09
-3.87595e-10
-8.90735e-09
-9.26501e-09
2.37141e-09
2.03266e-09
-4.49326e-09
-3.72359e-09
3.63567e-09
1.50468e-08
1.97275e-08
5.93364e-09
4.21225e-09
8.91915e-09
4.36947e-09
1.85782e-09
6.02444e-10
-4.62389e-11
-8.7811e-10
-9.75571e-11
1.63759e-10
-6.15778e-11
-1.30515e-11
2.99151e-11
-8.78007e-11
2.39279e-10
1.58731e-09
2.60579e-09
1.7623e-11
2.51295e-09
1.16351e-08
5.91329e-09
-2.48261e-09
7.90374e-10
1.37884e-09
-1.11857e-09
9.81896e-10
4.75049e-09
6.53804e-09
2.4011e-09
-5.87329e-09
-1.81434e-08
-1.73353e-08
1.35865e-09
3.78175e-10
-1.03108e-08
-6.55596e-09
-1.49724e-09
1.78216e-10
7.53676e-09
1.61278e-08
1.13647e-08
1.48565e-09
7.29236e-09
7.21502e-09
3.16567e-09
1.22099e-09
1.55785e-10
-1.00649e-09
2.987e-10
8.42121e-10
2.64021e-10
-6.06866e-11
1.14352e-10
5.1923e-10
4.542e-10
6.31443e-10
2.42754e-09
1.11963e-09
1.93364e-10
3.89022e-09
4.13921e-10
-2.62752e-09
2.22079e-09
9.52102e-10
-1.91081e-09
1.49014e-10
1.91319e-09
2.19047e-09
-1.10692e-09
-1.18664e-08
-1.45184e-08
-1.1785e-09
-2.91558e-09
-1.40914e-08
-9.41716e-09
-1.91523e-11
4.1525e-09
1.07997e-09
8.50669e-10
1.16607e-08
1.46289e-08
4.63947e-09
1.73881e-09
7.89423e-09
6.40503e-09
3.04773e-09
1.89243e-09
-1.40478e-10
6.63775e-10
1.0403e-09
8.07082e-10
5.43707e-10
-9.04207e-11
-2.47741e-10
3.76872e-10
4.37235e-10
2.68084e-09
3.55309e-09
-3.59074e-09
-4.08573e-09
-8.77672e-10
1.12822e-09
1.95228e-10
-3.08845e-09
-2.27221e-09
1.69134e-09
2.60221e-09
-3.98896e-10
-4.19694e-09
-4.10988e-09
1.38725e-09
-3.70912e-09
-9.57418e-09
-4.91754e-09
2.59085e-10
-1.08697e-09
1.35359e-09
2.93988e-09
-4.8463e-11
5.70879e-09
1.42352e-08
1.06261e-08
1.28458e-09
1.96848e-09
6.50161e-09
5.55752e-09
1.95535e-09
1.68033e-09
2.10001e-09
1.94549e-09
5.76855e-10
-3.69778e-11
6.39793e-10
-6.13019e-11
-6.05959e-10
2.08989e-10
1.42851e-09
1.85081e-09
-4.74756e-09
-4.46594e-09
2.90865e-09
1.19911e-09
-1.36814e-09
-7.06582e-10
-2.31935e-10
4.33833e-10
1.73417e-09
6.96434e-10
-1.10782e-09
-4.6715e-10
-3.60472e-09
-6.56233e-09
-2.47069e-09
-1.20466e-09
-6.52883e-09
-2.0017e-09
3.25809e-09
2.25723e-09
-1.94335e-09
3.20546e-09
1.15111e-08
1.09367e-08
3.4815e-09
-2.18727e-10
1.88047e-09
2.89972e-09
5.94927e-11
9.06181e-10
1.84191e-09
9.47316e-10
-4.01385e-10
-2.17014e-12
1.15173e-09
1.15673e-09
-5.48082e-10
-2.06342e-11
2.12737e-09
1.56682e-10
-1.5056e-09
8.09121e-10
9.17317e-10
-9.58021e-11
4.60214e-10
1.0204e-09
5.8612e-10
-1.12832e-10
3.12945e-10
1.33504e-09
7.44527e-10
-1.30045e-09
-2.04434e-09
-8.37566e-11
-1.39189e-09
-4.21739e-09
-2.73763e-09
-7.42114e-10
1.75546e-09
6.80379e-09
6.48191e-09
1.42006e-09
7.24385e-09
8.59084e-09
2.97518e-09
-1.19058e-10
6.42742e-10
7.26653e-10
-4.21773e-11
-3.53707e-12
5.60471e-11
6.56562e-11
2.4507e-10
1.64029e-10
3.80918e-10
1.52505e-09
1.7922e-09
1.7041e-10
1.23923e-09
1.72304e-09
4.7956e-11
8.46027e-10
1.35676e-09
6.42514e-10
4.87834e-10
1.21803e-09
1.51051e-09
6.02734e-10
-3.4975e-10
-1.93751e-10
3.94261e-10
2.57298e-10
2.05213e-10
7.48331e-12
-8.59518e-10
-1.10997e-09
-2.51431e-10
2.35941e-10
3.03878e-10
3.25046e-09
8.11172e-09
5.77936e-09
-4.15165e-10
4.54575e-09
5.26739e-09
1.63626e-09
2.23203e-10
1.35847e-10
-5.99429e-10
-6.81651e-10
2.06965e-11
8.85924e-10
7.45458e-10
-5.76076e-11
5.94991e-11
1.09142e-09
2.11215e-09
1.18353e-09
-5.61985e-10
9.60552e-10
2.08928e-09
9.42043e-10
-1.16227e-10
-4.692e-10
-3.30991e-10
5.24336e-10
1.42887e-09
1.25556e-09
4.20705e-10
-1.50833e-10
-2.79518e-10
-2.95701e-10
-4.44552e-10
-7.44413e-10
-8.15217e-10
-4.90948e-10
-1.41169e-10
-8.18543e-11
-3.33736e-10
1.0472e-09
3.02271e-09
3.59752e-09
-7.08341e-10
-2.17041e-09
1.96868e-09
2.95678e-09
1.19348e-09
8.06476e-12
7.41289e-10
3.99939e-10
-1.32707e-10
2.18113e-10
6.35099e-10
1.91404e-11
-8.28841e-10
-8.72343e-10
-5.62005e-11
8.04197e-10
8.81936e-10
1.10158e-09
1.33269e-09
5.06605e-10
2.36356e-12
3.79318e-10
5.99696e-10
3.20954e-11
-1.7748e-10
4.71757e-10
5.73203e-10
-2.8121e-10
-9.03764e-10
-5.9362e-10
1.02595e-10
3.51307e-10
-3.35072e-10
-1.08829e-09
-5.72327e-10
4.07013e-10
2.77869e-10
5.36058e-11
9.56841e-10
5.15489e-10
-1.00875e-09
-1.0615e-09
-3.24675e-10
4.15656e-10
6.51017e-10
6.38073e-10
8.66273e-10
7.22784e-10
4.92919e-10
3.28938e-10
-2.50928e-10
-1.00613e-09
-1.17386e-09
-6.61814e-10
4.30838e-10
7.37662e-10
3.07405e-10
1.33785e-09
1.47381e-09
1.3411e-10
3.78717e-10
2.12341e-09
2.62899e-09
1.18707e-09
-2.1557e-10
-3.6787e-10
2.08073e-10
5.63331e-10
4.39605e-10
2.77102e-10
4.92872e-10
6.32742e-10
4.29322e-10
1.5331e-10
-6.3768e-11
-7.12162e-11
1.96723e-10
2.81864e-10
-3.64596e-11
2.54113e-10
3.02546e-10
-1.87347e-12
-9.94975e-11
3.59874e-11
3.98779e-10
7.44411e-10
2.8399e-10
2.14437e-10
3.74025e-10
3.03986e-10
-1.32544e-11
-1.36364e-10
-2.14652e-10
-4.51821e-10
-4.96835e-10
-1.5412e-10
3.82403e-10
9.04004e-10
1.15947e-09
7.56281e-10
4.24057e-10
7.58021e-10
1.3735e-09
1.67936e-09
1.35699e-09
7.56704e-10
1.91107e-10
-3.70005e-10
-4.80963e-10
8.38548e-11
5.36552e-10
3.87372e-10
-3.29849e-11
-2.71602e-10
-3.94705e-10
-2.87162e-10
3.59809e-10
1.08006e-09
6.27952e-10
-4.46061e-10
-1.06665e-10
7.00975e-10
6.416e-10
1.78373e-10
1.0804e-10
3.36997e-10
-5.8122e-10
-1.26178e-09
-1.67598e-09
-2.68603e-09
-2.1377e-09
1.70124e-10
1.93483e-09
1.01032e-09
-1.29466e-09
-3.44933e-09
-6.17254e-09
-9.02051e-09
-9.97084e-09
-8.07867e-09
-1.83276e-09
2.4676e-09
6.87842e-09
1.98746e-08
4.55909e-08
5.05526e-08
1.42245e-08
2.81889e-09
-2.00263e-09
-6.6144e-09
-4.68703e-09
-3.59976e-09
-5.51445e-09
-1.21683e-08
-2.07651e-08
-2.02756e-08
2.53681e-09
3.67197e-08
4.96e-08
2.94951e-08
4.28903e-09
8.67924e-10
5.38617e-09
2.96038e-09
8.96085e-11
-6.56409e-10
-1.09877e-09
-1.20123e-09
-2.13592e-09
-4.5055e-09
-4.06545e-09
-6.59976e-10
1.72638e-09
1.24884e-09
-1.12605e-09
-3.11018e-09
-4.52211e-09
-5.86151e-09
-6.22992e-09
-4.11131e-09
1.04449e-09
6.48507e-09
7.28981e-09
8.97247e-09
3.61108e-08
1.11752e-07
1.19377e-07
2.28054e-08
2.41773e-08
-7.86479e-09
-1.79546e-08
-3.3729e-09
-5.7856e-09
-1.84899e-08
-2.39947e-08
-2.09031e-08
-4.9518e-09
3.48648e-08
9.27817e-08
1.27277e-07
9.93444e-08
2.40208e-08
-3.86474e-09
1.31129e-08
9.89659e-09
1.69117e-09
4.22098e-09
3.12804e-09
5.54854e-09
4.19879e-09
2.48887e-09
1.88744e-09
-7.09665e-10
-3.18412e-09
-1.95876e-09
3.88536e-09
1.4561e-08
2.15837e-08
1.97863e-08
9.67525e-09
-5.27142e-09
-2.09907e-08
-1.98626e-08
-1.27588e-09
-2.196e-08
-1.04329e-07
-1.39673e-07
-9.63191e-08
1.16284e-07
1.57327e-07
3.26419e-08
1.25842e-08
-3.70503e-09
-9.47791e-09
2.41566e-08
5.24474e-08
2.87658e-08
-3.7737e-08
-9.84458e-08
-1.04937e-07
-6.50221e-08
-2.96313e-08
-2.35793e-08
1.15794e-08
5.05272e-08
2.48567e-08
1.64769e-08
5.33749e-09
6.74248e-09
4.30647e-09
1.26718e-09
3.8026e-10
-1.39072e-09
-3.65172e-09
-3.42061e-09
-7.45357e-10
6.89012e-09
1.32171e-08
1.02106e-08
-3.35111e-10
-1.45396e-08
-3.08043e-08
-3.03639e-08
-3.55469e-09
8.39684e-09
-1.65946e-08
-6.49738e-08
-9.14113e-08
9.14039e-08
2.17268e-07
6.0796e-08
1.5065e-08
-9.04875e-09
-2.6171e-08
-1.2378e-09
2.58853e-08
1.79401e-08
-1.48363e-08
-4.99077e-08
-7.31045e-08
-8.1821e-08
-7.50726e-08
-3.88574e-08
1.24353e-08
7.54261e-08
6.67069e-08
4.31976e-08
6.74588e-09
4.49573e-09
2.74891e-09
2.60626e-10
9.64623e-10
1.01803e-09
-7.4835e-10
-2.1939e-10
1.47573e-09
2.85887e-09
5.44654e-09
4.36646e-09
1.54359e-10
-5.12859e-09
-1.55752e-08
-1.8535e-08
-2.47519e-09
5.9654e-09
9.86224e-09
3.3185e-08
1.45873e-08
1.67187e-08
1.79149e-07
5.93375e-08
9.58704e-09
1.76374e-08
1.80228e-09
-2.14532e-09
6.03839e-09
6.66494e-09
-4.33737e-10
-4.61281e-09
-3.43051e-09
-2.71628e-09
-8.58141e-09
-1.56983e-08
3.63222e-11
5.34779e-08
1.07965e-07
1.04034e-07
1.86482e-08
3.62717e-09
2.11402e-09
-1.55658e-10
5.82558e-10
2.06758e-09
8.76475e-10
5.46423e-10
4.34527e-09
4.77431e-09
2.02255e-09
9.47363e-10
9.42577e-10
-3.44677e-09
-1.33295e-08
-1.19086e-08
-3.03121e-10
3.62328e-09
4.3475e-09
2.28324e-08
4.27861e-08
4.28778e-10
8.30833e-08
5.87697e-08
4.50238e-09
1.24086e-08
1.10561e-08
2.901e-09
-1.82868e-09
-2.61356e-09
-2.03228e-09
2.78868e-09
1.38277e-08
2.63406e-08
3.58425e-08
2.70322e-08
4.8245e-09
2.68836e-09
9.83106e-08
1.58363e-07
5.95311e-08
5.98856e-09
2.15735e-09
5.5004e-10
2.71484e-10
2.19277e-09
3.58506e-09
2.68629e-09
1.89988e-09
4.71358e-09
3.48407e-09
9.17057e-10
2.0503e-09
-3.70281e-09
-1.19225e-08
-4.36661e-09
2.98605e-10
8.83175e-10
3.07234e-09
7.29287e-10
5.18125e-09
1.83282e-09
1.49014e-08
3.70475e-08
9.08978e-09
-2.49798e-09
1.82406e-09
1.94045e-09
-2.1957e-09
-5.31139e-09
-5.56782e-09
-1.06232e-09
1.04701e-08
2.26434e-08
2.85591e-08
3.24497e-08
2.89671e-08
7.44267e-09
2.3725e-08
1.10515e-07
1.32571e-07
1.7808e-08
2.40625e-09
1.13672e-09
3.59341e-10
1.46673e-09
3.58824e-09
6.38235e-09
4.34276e-09
1.06778e-09
2.36444e-09
3.94261e-09
6.81719e-09
1.55071e-09
-4.05448e-09
2.3619e-09
4.56894e-11
-1.2962e-11
1.29169e-09
-9.50127e-09
-8.99371e-09
2.51508e-09
-4.58685e-09
1.85377e-08
8.33801e-09
-8.09248e-09
-3.41879e-09
-3.52888e-10
-2.52409e-09
-5.01432e-09
-7.15406e-09
-5.74722e-09
6.0141e-09
2.05138e-08
2.52044e-08
2.2488e-08
2.76449e-08
3.92528e-08
-1.46057e-09
1.71228e-08
1.67103e-07
4.92248e-08
3.67594e-09
4.00702e-10
7.77707e-10
9.57149e-10
1.31372e-09
3.48487e-09
8.87964e-09
8.0308e-09
5.37074e-10
3.5912e-09
9.9956e-09
6.81385e-09
2.78061e-09
2.75136e-09
-1.24773e-09
5.97823e-10
-1.07322e-09
-1.36617e-08
-8.3188e-09
4.28348e-09
-3.18473e-09
1.36377e-08
4.33895e-09
-7.18267e-09
-4.11819e-09
-1.41374e-09
-1.04119e-09
-1.98096e-09
-3.48676e-09
-4.84659e-09
-1.41471e-09
1.17538e-08
1.93998e-08
1.63371e-08
1.38369e-08
3.51359e-08
4.14078e-08
5.6502e-09
1.05183e-07
8.22912e-08
6.41363e-09
1.92665e-11
2.41234e-09
2.38269e-09
1.16693e-09
7.82193e-10
7.10553e-09
1.81086e-08
8.65132e-09
-9.09188e-10
9.41257e-09
8.20914e-09
4.70983e-09
1.00082e-09
-2.21131e-09
9.46211e-10
-2.90257e-09
-1.34378e-08
-6.07931e-09
4.6059e-09
3.56455e-10