/*--------------------------------*- C++ -*----------------------------------*\
| =========                 |                                                 |
| \\      /  F ield         | OpenFOAM: The Open Source CFD Toolbox           |
|  \\    /   O peration     | Version:  5.0                                   |
|   \\  /    A nd           | Web:      www.OpenFOAM.org                      |
|    \\/     M anipulation  |                                                 |
\*---------------------------------------------------------------------------*/
FoamFile
{
    version     2.0;
    format      ascii;
    class       volScalarField;
    location    "50.4676134421789371";
    object      dissVWMean;
}
// * * * * * * * * * * * * * * * * * * * * * * * * * * * * * * * * * * * * * //

dimensions      [0 2 -3 0 0 0 0];

internalField   nonuniform List<scalar> 
60000
(
9.08399e-10
-1.28205e-10
1.46547e-09
3.1143e-09
1.87778e-09
-3.82804e-10
-4.71803e-10
1.41044e-09
3.84012e-09
4.94067e-09
3.45443e-09
1.51423e-10
-1.29537e-09
-1.83948e-09
-3.13901e-09
-3.23437e-09
-2.39677e-09
-2.65154e-09
-3.63838e-09
-9.00202e-10
6.21804e-09
4.23371e-09
-3.9829e-09
-1.56278e-09
1.36047e-08
3.46759e-08
4.53235e-08
2.7208e-08
-5.42787e-09
-1.6927e-08
-2.05452e-08
-2.76569e-08
-2.5556e-08
-1.03293e-08
5.95828e-09
2.85902e-10
-2.826e-09
6.00358e-09
9.32655e-09
5.58373e-09
9.08673e-09
3.34087e-09
2.22515e-10
-7.76493e-10
9.03282e-10
1.39698e-09
-4.08958e-10
2.27996e-10
3.35435e-09
7.71693e-09
9.40125e-09
5.32479e-09
-4.92412e-10
-1.26381e-09
-2.10901e-09
-6.48085e-09
-8.97665e-09
-7.51783e-09
-3.84986e-09
1.67513e-11
4.36093e-09
9.0149e-09
4.22733e-09
-1.25905e-09
1.78375e-09
8.42592e-09
1.47544e-08
1.72926e-08
7.5205e-09
-7.97597e-09
-6.17825e-09
-2.99072e-09
-8.66986e-09
-1.25643e-08
-4.49055e-09
1.01199e-08
-1.98607e-10
-3.37361e-09
8.24334e-09
1.28185e-08
2.50172e-09
1.97937e-09
3.10454e-10
-1.09462e-09
-3.51369e-10
3.17737e-09
2.60729e-09
-9.40537e-10
-3.10159e-09
-2.12789e-09
-1.25673e-10
3.02071e-10
-8.69044e-11
1.79314e-09
3.71485e-09
1.25404e-09
-4.58958e-10
1.93457e-09
3.16697e-09
-1.50378e-09
-1.03924e-08
-1.00956e-08
-5.48173e-09
-4.62379e-09
-1.92998e-09
-1.62836e-09
-5.35392e-09
-8.09347e-09
-3.77186e-09
4.75816e-09
1.68174e-08
3.00557e-08
2.82789e-08
1.47918e-08
2.56462e-09
-7.8687e-10
-4.99351e-09
-1.85506e-08
-1.096e-08
-3.86902e-10
-1.48582e-09
-3.21606e-10
8.9516e-10
1.57335e-09
1.88742e-09
3.94006e-09
4.85992e-09
2.11388e-10
-4.81315e-09
-5.64682e-09
-2.78743e-09
-1.00953e-09
6.60532e-10
4.79636e-09
7.908e-09
4.97791e-09
1.8687e-09
1.90468e-09
-5.50303e-10
-1.04954e-08
-2.25791e-08
-1.80742e-08
-5.7281e-09
-3.62751e-09
1.51611e-10
2.17469e-09
-3.40069e-10
-3.25769e-09
-2.21372e-09
3.18661e-09
1.24844e-08
2.27686e-08
2.3981e-08
1.33176e-08
5.18398e-10
-6.46553e-09
-1.17627e-08
-2.16958e-08
-1.98903e-08
-6.74746e-09
-8.74246e-10
-2.91613e-10
-1.47957e-10
5.94226e-10
1.02415e-09
2.0161e-09
3.77552e-09
2.05585e-09
-3.41252e-09
-6.98902e-09
-3.8201e-09
3.44418e-10
8.56396e-10
6.18725e-10
1.58081e-09
-9.99691e-10
-2.47198e-09
-5.59256e-10
-3.58087e-10
-6.72303e-09
-2.48226e-08
-2.15208e-08
-6.34389e-10
-1.35242e-09
-1.5799e-09
1.44841e-09
5.88755e-10
-3.80018e-10
4.04173e-10
2.86408e-10
-1.95746e-09
2.03033e-09
1.00265e-08
1.05794e-08
2.20386e-09
-3.93623e-09
-1.58826e-09
-6.53077e-09
-1.51835e-08
-8.6003e-09
-2.04989e-09
9.18474e-11
-1.30679e-09
-3.04116e-09
-4.00649e-09
-3.45925e-09
-9.60568e-10
1.18302e-09
-8.66582e-10
-5.81517e-09
-6.19125e-09
-8.92818e-10
1.66588e-09
-1.10119e-09
-6.8737e-09
-9.3579e-09
-5.30508e-09
-2.23885e-09
-3.44855e-09
-1.17834e-09
-1.84886e-08
-3.05054e-08
-5.45995e-09
-3.99244e-10
-2.15421e-11
1.29282e-09
1.09167e-10
-1.19325e-10
-2.25424e-10
-8.6295e-10
-5.92829e-09
-1.19621e-08
-6.94502e-09
2.74206e-09
4.4362e-09
-1.50783e-09
3.68059e-11
6.54283e-09
-2.20354e-09
-8.51428e-09
-4.22942e-09
1.15057e-10
-6.70203e-11
-1.98906e-09
-5.57241e-09
-7.94738e-09
-6.51876e-09
-2.05767e-09
-4.09233e-11
-3.55681e-09
-4.79455e-09
5.20533e-10
2.26701e-09
-1.62569e-09
-9.85875e-09
-1.07542e-08
-2.30766e-09
-8.94239e-10
-5.38597e-09
-4.02889e-09
-5.23854e-09
-3.20616e-08
-2.08341e-08
-4.43861e-09
1.45931e-09
3.85962e-11
-2.58103e-10
-1.04617e-10
-2.44862e-10
-1.33139e-09
-4.60305e-09
-1.14081e-08
-1.54781e-08
-8.81654e-09
2.14946e-10
9.65329e-10
-2.97352e-09
1.20468e-09
3.81091e-09
-3.61846e-09
-3.26565e-09
-1.59583e-09
9.86783e-10
1.06199e-09
-2.2809e-09
-7.42374e-09
-9.72848e-09
-5.73484e-09
1.01401e-09
-6.93247e-10
-2.63801e-09
5.88246e-09
6.46594e-09
-4.13847e-09
-1.03556e-08
-4.95653e-09
-3.49212e-10
-1.05852e-09
-2.85889e-09
-9.3511e-09
-8.00964e-10
-1.6458e-08
-2.82586e-08
-8.96532e-09
-6.6602e-10
-4.67223e-10
5.80996e-10
1.2677e-10
-1.80963e-10
-4.68114e-10
-2.04888e-09
-5.65307e-09
-1.14347e-08
-1.37229e-08
-7.1856e-09
-3.71131e-10
-7.79273e-10
-2.8184e-09
-2.31706e-10
1.17472e-10
-1.34595e-09
-3.26179e-09
-2.58586e-10
1.80106e-09
2.12494e-10
-2.76433e-09
-5.61527e-09
-5.43493e-09
8.25998e-10
5.32353e-09
-1.43595e-09
6.70005e-09
1.16146e-08
-4.01868e-09
-7.35987e-09
-1.30524e-09
-2.69451e-09
-2.75877e-09
-3.66039e-10
-6.71794e-09
-8.64354e-09
-2.16645e-09
-2.01082e-08
-1.19119e-08
-3.41096e-09
1.27998e-10
1.2039e-09
2.65269e-10
-1.26379e-10
-3.84611e-10
-9.45875e-10
-2.10811e-09
-4.48367e-09
-7.53261e-09
-7.25341e-09
-2.30222e-09
4.91183e-10
-8.73033e-10
-1.971e-09
-9.40116e-10
-1.38029e-10
-2.0493e-09
-1.13928e-09
1.35611e-10
-1.33285e-10
1.63482e-09
1.40357e-09
-5.1284e-10
4.92189e-10
6.77303e-09
4.71162e-09
7.70696e-10
1.29223e-08
4.3735e-09
-1.29561e-09
-1.47933e-09
-3.40617e-09
-2.13698e-09
-2.08114e-10
-7.81993e-10
-8.39051e-09
-2.0869e-09
-7.04953e-09
-1.02737e-08
-4.42879e-09
4.94232e-10
9.19746e-10
2.33421e-10
7.84149e-11
-1.38724e-10
-5.78793e-10
-1.22996e-09
-1.97178e-09
-2.80667e-09
-3.07349e-09
-1.49781e-09
5.64977e-10
5.99203e-10
-9.4678e-11
-4.83529e-10
1.27117e-09
2.13955e-09
1.13684e-09
-9.31789e-10
-6.80296e-11
4.38543e-09
4.65353e-09
1.47856e-09
1.26813e-10
2.62036e-09
7.1491e-09
9.1047e-10
5.00854e-09
1.1637e-08
3.73649e-09
-9.61457e-10
-1.42815e-09
-9.86352e-10
-3.14921e-10
9.80375e-10
5.65187e-10
-1.08515e-09
-5.64591e-10
-4.36531e-09
-2.42358e-09
-9.31631e-11
1.66664e-10
2.29183e-10
2.12532e-10
7.78439e-11
-1.44764e-10
-6.90003e-10
-1.68581e-09
-2.05164e-09
-1.53098e-09
-7.98785e-10
5.64783e-11
6.7322e-10
4.38255e-10
3.20079e-10
1.31239e-09
5.08047e-09
3.25682e-09
-9.13582e-10
1.81859e-09
5.10709e-09
4.15584e-09
1.35146e-09
-3.38603e-10
1.98953e-10
3.01375e-09
3.47072e-09
1.064e-11
7.59038e-09
5.9702e-09
7.00051e-10
-5.78006e-10
-1.20828e-09
-3.05311e-10
1.72366e-09
3.72557e-09
3.95115e-09
2.14182e-09
9.43429e-10
-7.69768e-11
-1.57138e-10
2.92571e-10
2.77298e-10
1.26483e-10
-5.50398e-12
-1.26297e-10
-1.19167e-10
-9.6894e-10
-2.67997e-09
-2.62546e-09
-1.13544e-09
-1.86478e-10
2.46609e-10
3.30731e-10
2.61516e-10
2.77354e-10
2.56801e-09
2.0969e-09
-2.92443e-10
2.35915e-09
3.14429e-09
1.89869e-09
9.13201e-10
1.64768e-11
-6.74413e-11
1.71085e-09
3.06877e-09
6.40512e-10
3.1909e-09
5.86789e-09
2.85595e-09
1.97046e-10
-1.19152e-09
-2.42365e-10
2.37243e-09
3.79542e-09
4.36163e-09
3.829e-09
1.55157e-09
1.73337e-10
9.07213e-10
3.55664e-10
4.54615e-11
-1.38796e-11
-8.77306e-11
-7.22953e-10
-1.0788e-09
-1.54587e-10
-1.72908e-09
-4.21424e-09
-3.06516e-09
-8.10753e-10
5.44996e-11
1.50117e-11
7.81293e-11
6.22265e-11
1.55185e-10
1.87001e-10
5.89173e-10
1.30325e-09
6.01836e-10
1.21779e-10
5.10712e-10
3.57367e-10
-4.47128e-11
1.39085e-09
2.72908e-09
8.85874e-10
1.68917e-09
5.57719e-09
3.99019e-09
5.19732e-10
-1.79083e-10
-4.56285e-11
7.04611e-10
2.51107e-09
2.50474e-09
8.07978e-10
-4.62075e-10
5.7339e-10
3.59424e-10
-1.01324e-10
-1.45706e-10
-9.49477e-12
1.42469e-10
-1.11618e-09
-3.47818e-09
-2.4321e-09
1.76756e-11
-3.04207e-09
-4.74982e-09
-2.15365e-09
-2.71027e-10
1.05049e-10
-1.91352e-11
-8.98577e-11
-2.60502e-11
5.51492e-10
8.89549e-10
4.02296e-10
-6.11183e-11
-2.71896e-10
5.86837e-13
3.99207e-10
-3.50541e-10
-5.29867e-10
1.36108e-09
9.52006e-10
6.53085e-10
3.62093e-09
2.14978e-09
4.16101e-11
3.07218e-10
1.73359e-10
-2.95438e-11
1.86168e-11
1.29485e-09
4.43581e-10
-1.89839e-10
-4.70995e-11
-5.73364e-10
-5.69599e-10
2.64828e-10
8.09057e-10
4.53866e-10
-1.09554e-09
-3.76656e-09
-4.98064e-09
-1.38062e-09
-9.18347e-11
-3.95553e-09
-3.712e-09
-1.0451e-09
3.76702e-11
1.89283e-10
-7.34456e-11
-2.94674e-10
2.4064e-10
3.86197e-10
3.00165e-11
-1.32259e-10
-4.15953e-10
-6.43241e-10
-9.3213e-11
1.69352e-11
-1.23089e-09
-8.56746e-10
5.55619e-10
1.3891e-10
3.84967e-10
-1.07546e-10
-2.35461e-10
5.38355e-11
3.39642e-10
7.30328e-10
6.58466e-11
7.01864e-10
1.91969e-09
3.35587e-10
-2.57135e-09
-2.71334e-09
9.07035e-10
3.19621e-09
1.81876e-09
-1.78853e-11
-8.29937e-10
-2.10764e-09
-4.36607e-09
-4.09145e-09
-1.1887e-10
-7.87516e-10
-3.7371e-09
-2.49318e-09
-4.22405e-10
2.47485e-10
-5.19645e-11
-3.89142e-10
-1.729e-10
4.37344e-10
6.0085e-10
3.02945e-11
-5.09584e-10
-4.36708e-10
-9.04044e-11
8.77312e-11
-7.58056e-10
-1.40933e-09
4.4551e-11
3.89827e-10
-7.55267e-10
-1.00193e-09
-5.1644e-10
4.12375e-11
3.29076e-10
4.63074e-10
3.05795e-10
1.53254e-10
1.20443e-09
-6.63288e-11
-3.51993e-09
-1.88691e-09
3.7024e-09
3.49943e-09
-2.0825e-10
-7.97854e-10
-1.14107e-10
-4.51348e-10
-2.92358e-09
-5.66452e-09
-3.49847e-09
2.10737e-10
-1.22742e-09
-2.87117e-09
-1.46799e-09
-1.11204e-10
-5.78848e-10
-3.17061e-10
3.17463e-10
9.19372e-10
2.5913e-10
-1.49863e-10
2.70374e-10
3.14376e-10
2.10139e-10
1.27081e-10
-4.22863e-10
-8.14008e-10
3.76364e-10
6.18692e-10
-9.60108e-10
-9.86149e-10
1.0756e-10
2.37069e-10
-1.71893e-11
-1.15536e-10
1.56894e-11
1.31943e-10
-3.3225e-11
-6.37015e-11
2.00344e-09
5.14027e-09
2.85063e-09
1.00425e-11
2.48723e-09
3.49336e-09
1.35895e-09
1.12022e-10
-8.31504e-10
-3.74975e-09
-5.37126e-09
-2.49158e-09
2.50999e-11
-7.87518e-10
-1.65415e-09
-1.19347e-09
-1.98947e-09
-1.21273e-09
1.53102e-10
-1.58552e-10
-5.35202e-10
4.07493e-10
6.03312e-10
-1.79279e-10
-4.95157e-10
-5.32915e-11
-1.8452e-10
-5.36652e-10
1.62935e-10
1.92441e-11
-6.50702e-10
-2.62588e-11
1.31292e-10
-2.09309e-10
-5.07809e-11
-1.86282e-10
-2.98274e-10
6.92974e-10
2.04313e-09
3.65658e-09
4.09058e-09
1.17112e-09
6.13643e-10
4.67777e-09
4.8708e-09
1.86224e-09
1.01283e-09
1.34842e-09
2.13346e-10
-1.51345e-09
-3.24002e-09
-3.6398e-09
-1.8204e-09
-2.19826e-10
-3.26126e-10
-1.31922e-09
-4.93399e-10
-1.62339e-09
-2.77347e-09
-2.52898e-09
-8.9719e-10
-4.60782e-11
-3.64696e-10
-7.17103e-10
-1.01839e-09
-7.6837e-10
6.52031e-11
-3.19381e-11
-3.14735e-10
9.4719e-11
4.71881e-10
1.00046e-10
-3.97359e-10
-5.04966e-11
6.46625e-10
5.77568e-10
-1.48154e-10
4.05385e-11
1.21866e-09
1.33631e-09
2.801e-10
3.22381e-10
1.08023e-09
5.39093e-10
-4.74678e-11
1.25277e-10
5.03022e-11
6.76504e-10
2.13752e-09
1.1451e-09
-8.53163e-10
-1.55377e-09
-1.23624e-09
-5.69377e-10
-1.75576e-10
-8.72878e-11
5.13552e-10
2.65919e-10
-7.67147e-10
-1.43054e-09
-6.87922e-10
-4.46099e-11
-7.23942e-11
-1.52108e-10
-1.61586e-10
-3.5729e-10
1.44078e-10
1.06957e-09
9.22371e-10
3.60982e-10
1.78951e-10
1.47575e-10
1.7389e-10
2.15838e-10
2.66752e-10
3.93187e-10
3.36014e-10
1.48235e-11
-5.64514e-11
8.30129e-11
-1.35413e-11
-1.90241e-10
-2.09901e-10
-1.01034e-10
9.89401e-11
3.45729e-10
2.76988e-10
-1.73574e-10
2.85263e-10
1.75147e-09
1.32099e-09
-2.18974e-10
-3.97883e-10
2.19325e-10
4.68663e-10
4.94067e-10
3.36161e-10
1.96665e-10
-1.64373e-11
-6.12455e-11
-3.38739e-12
9.35581e-12
-5.27114e-11
-1.54184e-10
-1.78903e-10
1.11384e-10
5.4616e-10
8.04172e-10
5.28086e-10
2.29923e-10
4.07949e-10
4.92747e-10
2.06342e-10
-2.20331e-10
-4.78768e-10
-4.6629e-10
-1.80892e-10
1.7737e-10
1.96132e-10
-2.0456e-10
-6.76982e-10
-8.78207e-10
-7.73839e-10
-4.58672e-10
-5.08225e-11
2.88012e-10
2.32871e-10
-2.37561e-10
-5.01945e-10
-6.50783e-11
6.82564e-10
6.14732e-10
7.06213e-11
6.48627e-12
2.048e-10
2.87211e-10
4.17882e-11
9.15924e-11
5.22868e-11
5.35278e-11
1.66508e-10
2.94246e-10
3.20607e-10
1.30592e-10
-2.97891e-10
-5.18973e-10
-2.03193e-10
-1.25625e-11
-3.37372e-12
2.10889e-10
3.50826e-10
1.08731e-10
-1.31139e-10
-9.98623e-11
-5.75976e-11
-1.48141e-11
1.04763e-10
-4.55858e-11
-5.18833e-10
-7.17604e-10
-4.67759e-10
-1.42959e-10
-7.30539e-12
-8.33819e-12
9.5343e-11
3.38225e-10
2.85769e-10
-1.97531e-10
-3.50955e-10
6.20652e-11
2.04538e-10
9.85275e-11
-4.41813e-11
-1.76015e-10
-1.74155e-10
-7.71816e-11
-8.59368e-11
-1.62222e-10
-1.0463e-10
6.4391e-11
4.60199e-11
-6.96966e-11
6.63358e-11
2.03759e-10
6.71775e-11
-2.01857e-10
-5.63178e-10
-6.96641e-10
-3.46526e-10
4.0175e-11
-1.80194e-11
-2.69069e-10
-2.32821e-10
4.1524e-12
6.23479e-11
-8.16532e-11
-2.0942e-10
-1.66947e-10
8.21475e-11
2.09454e-10
2.29592e-11
-1.68966e-10
-1.34037e-10
1.04057e-12
9.84856e-11
1.62855e-10
1.176e-10
-1.77573e-10
-3.68211e-10
-4.37326e-11
2.48419e-10
8.74989e-11
-1.15212e-10
-1.22168e-10
-6.20384e-11
-4.0279e-11
-4.63504e-11
1.49757e-11
7.75866e-11
-1.09206e-11
-2.52267e-10
-3.48125e-10
-2.58049e-10
-1.30016e-10
-1.38298e-10
-2.12039e-10
-1.25575e-10
7.49993e-12
5.55007e-11
7.82501e-11
1.048e-10
4.52622e-11
-4.54705e-11
-5.37263e-11
-3.76481e-11
-6.50074e-11
-6.74945e-11
9.93384e-12
1.74154e-11
-1.37235e-10
-2.45e-10
-1.83739e-10
-5.43054e-11
1.72148e-11
-4.31771e-12
-2.67268e-11
6.93682e-11
1.96636e-10
1.72766e-10
4.17416e-11
9.87213e-12
3.43474e-11
1.86468e-11
-5.21617e-12
-4.67949e-11
-7.56625e-11
-1.05025e-12
-2.5356e-12
-7.51676e-10
-2.90928e-09
-5.19926e-09
-5.09245e-09
-3.31695e-09
-1.74863e-09
-9.81368e-10
-1.03597e-09
-3.80914e-09
-9.79712e-09
-1.69559e-08
-2.31905e-08
-2.85707e-08
-3.4586e-08
-3.99934e-08
-3.82264e-08
-2.36332e-08
-2.31783e-09
7.6644e-09
1.75939e-08
2.6843e-08
2.88489e-08
3.67385e-08
4.60844e-08
4.25957e-08
2.26037e-08
-1.81758e-09
-2.3269e-08
-3.39871e-08
-2.61035e-08
-4.71997e-09
1.10344e-08
8.79972e-09
-9.0154e-10
-7.8688e-09
-4.19006e-09
-1.68372e-10
2.54213e-10
1.21044e-09
2.419e-10
-6.33954e-10
-2.39857e-09
-4.48332e-09
-5.69441e-09
-4.90358e-09
-2.81395e-09
-9.67388e-10
3.74792e-10
6.02866e-10
-1.65048e-09
-4.23646e-09
-6.26075e-09
-8.94663e-09
-1.21171e-08
-1.63071e-08
-2.10045e-08
-2.27855e-08
-1.33855e-08
-2.40066e-09
-1.05568e-08
-5.30071e-09
6.46623e-09
1.52386e-08
2.65551e-08
3.06371e-08
2.05133e-08
3.5983e-09
-6.07484e-09
-8.74984e-09
-9.84169e-09
-7.1887e-09
2.60749e-10
7.10254e-09
5.62935e-09
-4.59093e-09
-1.06349e-08
-2.15921e-09
1.99145e-09
1.19887e-09
3.70131e-10
-2.85998e-12
6.48255e-10
2.41093e-09
3.4552e-09
2.71207e-09
2.10617e-09
5.35584e-10
-7.44412e-10
1.23666e-10
1.37692e-09
3.6102e-09
6.86627e-09
8.76155e-09
9.94665e-09
1.123e-08
1.24178e-08
1.45498e-08
1.59283e-08
1.05233e-08
-1.59455e-08
-3.07169e-08
-1.64348e-08
-1.15439e-08
-1.13316e-08
-1.19122e-08
-1.02359e-08
-3.55641e-09
9.01137e-09
2.27075e-08
2.62369e-08
1.69619e-08
3.62852e-09
-1.84802e-09
1.16852e-09
1.05725e-09
-9.16828e-09
-9.93236e-09
-1.07792e-09
1.31043e-10
4.52021e-10
1.022e-10
8.52427e-10
2.15447e-09
4.0895e-09
4.95255e-09
4.13535e-09
1.53825e-09
-1.54802e-09
-1.56293e-09
5.48885e-10
2.319e-09
4.10927e-09
4.73346e-09
4.68278e-09
3.70522e-09
3.56683e-09
6.42052e-09
1.01346e-08
7.77882e-09
-1.8421e-08
-3.67589e-08
-1.49246e-08
-6.32354e-09
-4.95759e-09
-4.40667e-09
-3.98216e-09
-1.99407e-10
8.0328e-09
1.679e-08
1.94828e-08
1.39529e-08
3.86641e-09
-4.03066e-09
-5.29445e-09
-3.92679e-09
-8.15997e-09
-1.51925e-08
-6.98254e-09
-2.29741e-09
1.13405e-09
1.02027e-10
-1.56282e-10
-2.97605e-10
8.98115e-11
2.13144e-09
3.61057e-09
2.14391e-09
-1.60309e-09
-2.8939e-09
-4.85736e-10
3.68253e-10
-7.28784e-10
-7.55973e-10
1.36907e-09
1.29693e-09
4.74194e-11
-4.78934e-10
-1.64816e-09
3.40252e-09
-7.87923e-09
-3.24214e-08
-1.20046e-08
-1.11791e-09
-2.14177e-09
-1.01227e-09
-3.87549e-10
2.97764e-10
1.12624e-10
1.1356e-09
3.3137e-09
4.31816e-09
2.82737e-09
-4.05226e-10
-1.58913e-12
3.91141e-13
-4.98162e-09
-1.54432e-08
-1.4914e-08
-9.88097e-09
5.75112e-10
7.4048e-10
-8.38286e-10
-1.87727e-09
-3.0776e-09
-2.30952e-09
1.54115e-09
4.43198e-09
1.28914e-10
-4.03525e-09
-2.74728e-09
-8.17858e-10
-2.37287e-09
-2.33966e-09
6.12791e-10
-4.74595e-10
-1.06898e-09
-5.80881e-10
-6.41636e-09
-4.63359e-09
1.05119e-09
-2.0872e-08
-1.36262e-08
-1.44051e-09
-1.72435e-10
3.67552e-10
2.58661e-11
1.71907e-09
1.52376e-09
-2.41504e-09
-5.57168e-09
-5.17597e-09
-2.0739e-09
-2.44673e-10
4.30974e-10
5.70861e-09
4.40167e-09
-7.33927e-09
-2.0019e-08
-1.93587e-08
-3.96065e-09
9.87507e-10
-3.53531e-10
-1.51388e-09
-3.19339e-09
-5.03826e-09
-3.44829e-09
4.45573e-09
7.61346e-09
-1.80168e-09
-5.41423e-09
-3.23969e-09
-2.26741e-09
-9.05669e-10
-1.1404e-09
-4.21688e-09
-2.6343e-09
2.70145e-10
-2.17861e-09
-6.46443e-09
1.85674e-09
-8.2881e-09
-1.44525e-08
-4.82533e-09
2.87754e-09
2.12821e-09
7.35282e-11
4.00771e-10
1.18226e-09
1.90158e-10
-3.41964e-09
-7.89278e-09
-8.82381e-09
-4.09243e-09
-9.63385e-10
1.84905e-09
8.76135e-09
5.27928e-09
-1.30153e-08
-1.97445e-08
-1.18209e-08
3.27983e-11
-7.47574e-11
-9.0071e-10
-1.77259e-09
-3.90065e-09
-5.88316e-09
-2.93617e-09
1.05024e-08
9.94346e-09
-4.28522e-09
-6.41332e-09
-2.55616e-09
-1.30269e-10
-4.28879e-09
-5.84386e-09
-1.85307e-09
1.43996e-10
1.41826e-09
-3.53279e-09
-9.033e-10
8.551e-11
-1.23421e-08
-5.31611e-09
3.2376e-09
1.60997e-09
7.14791e-11
-1.15885e-10
-1.05017e-10
-1.70095e-10
-9.91264e-10
-4.24237e-09
-9.41063e-09
-9.96197e-09
-4.0655e-09
-9.5558e-10
4.03078e-09
1.08052e-08
3.31786e-09
-5.80697e-09
-1.86179e-08
-1.58324e-09
9.11292e-10
-9.70164e-10
-9.48456e-10
-4.1256e-10
-1.12963e-09
-3.96444e-09
1.49893e-10
1.79249e-08
1.03746e-08
-4.73481e-09
-2.29428e-09
-3.10247e-10
-5.17693e-09
-3.36999e-09
5.11045e-10
1.57524e-10
1.9205e-09
3.04668e-10
-3.23126e-09
2.1133e-09
-8.72123e-09
-4.26186e-09
1.26668e-09
4.12965e-10
-1.05481e-11
-1.58369e-10
-2.02396e-10
-1.42556e-10
-2.23592e-10
-1.30927e-09
-4.35849e-09
-7.94232e-09
-6.86964e-09
-2.49011e-09
9.84587e-11
6.4205e-09
1.35354e-08
8.99491e-09
-1.50651e-08
-4.59386e-09
1.7738e-09
-7.68723e-10
-9.85691e-10
4.63406e-10
1.21333e-09
8.63404e-10
-2.73398e-09
5.59667e-09
2.40329e-08
9.85543e-09
2.95365e-10
-5.51225e-10
-1.73354e-09
1.75135e-09
1.65873e-09
2.38269e-10
1.11977e-09
1.37263e-09
-2.4577e-09
7.3502e-10
-4.59539e-09
-3.95367e-09
-1.01943e-09
1.61782e-10
2.0381e-10
-1.2454e-10
-2.36823e-10
-9.90858e-11
1.04178e-10
-1.77252e-10
-1.36576e-09
-3.13444e-09
-4.04765e-09
-2.54255e-09
-6.44673e-10
1.73561e-09
1.12523e-08
1.44464e-08
-7.54652e-10
-4.67731e-09
1.75671e-09
5.09095e-10
1.16004e-11
1.44139e-09
1.9241e-09
1.76278e-09
1.05376e-09
-2.15203e-09
1.38744e-08
2.35981e-08
5.65553e-09
-3.96062e-10
2.54022e-09
3.50964e-09
7.04479e-10
1.87928e-10
9.21279e-10
4.23688e-10
-2.21448e-10
2.64476e-11
-1.94851e-09
-3.20903e-09
-4.62293e-10
9.63747e-10
2.67163e-10
-1.13544e-10
-1.10392e-10
-9.86997e-11
-1.21033e-10
9.4905e-11
-4.93129e-10
-1.55931e-09
-1.73146e-09
-1.21417e-09
-4.15023e-10
3.60483e-10
5.14693e-09
1.16471e-08
1.62532e-08
2.10619e-09
3.84284e-10
2.06044e-09
2.91988e-09
2.70285e-09
1.63131e-09
1.16828e-09
1.02216e-09
-8.35828e-10
2.01297e-09
1.69511e-08
8.69739e-09
-3.96778e-10
2.11852e-09
1.29384e-09
-1.60381e-10
1.36605e-10
1.10383e-09
1.28261e-09
1.03276e-09
9.11184e-10
-2.26335e-10
1.42217e-10
1.22413e-09
2.68291e-10
-2.0631e-11
-4.50172e-11
3.45983e-12
-2.60421e-10
-1.55123e-09
-1.34169e-09
-2.28466e-10
-1.6509e-09
-2.29612e-09
-1.00951e-09
-2.55321e-10
2.01254e-11
8.94012e-10
4.30487e-09
1.9389e-08
9.85361e-09
-5.44578e-10
2.77837e-09
5.28368e-09
3.20529e-09
4.95021e-10
8.80594e-11
5.18626e-10
1.64649e-10
3.50684e-10
6.86198e-09
7.65397e-09
8.45288e-10
1.18217e-10
-1.9157e-10
1.03594e-10
1.16476e-10
1.51075e-09
3.30977e-09
2.5929e-09
2.09204e-09
1.29795e-09
1.26606e-09
1.35886e-10
-2.28074e-10
-1.63143e-10
-5.72759e-10
-1.59484e-10
-4.77713e-11
-3.09614e-09
-5.38786e-09
-1.85466e-09
-8.15048e-10
-3.14664e-09
-2.27027e-09
-3.42493e-10
-6.40236e-11
-3.82213e-10
4.25549e-10
7.06764e-09
5.77315e-09
-5.16858e-10
2.163e-09
4.79545e-09
2.67221e-09
1.00096e-10
4.39265e-10
1.01476e-09
7.9201e-11
4.12294e-10
3.30406e-09
6.31006e-09
3.33398e-09
5.75053e-10
2.53887e-10
4.14842e-10
4.09843e-10
1.82064e-09
3.93118e-09
3.11543e-09
1.49095e-09
4.59143e-10
-2.41864e-10
-7.32935e-11
5.2931e-12
-1.13168e-09
-1.49272e-09
-1.06692e-10
5.94433e-10
-2.31094e-09
-7.84421e-09
-6.53243e-09
-7.75211e-10
-1.89503e-09
-3.22509e-09
-1.22514e-09
-2.83237e-11
-1.58741e-10
3.23267e-11
2.74368e-10
2.36706e-10
2.35821e-10
7.16769e-10
1.02963e-09
5.72932e-10
-8.14458e-11
4.15057e-10
1.21238e-09
3.43969e-10
-2.35588e-10
1.49682e-09
4.54046e-09
4.63712e-09
1.61711e-09
2.7359e-10
2.71167e-10
5.81441e-10
1.01835e-09
2.16591e-09
2.64948e-09
6.34538e-10
-2.66162e-10
6.63825e-10
8.54508e-10
-1.41564e-09
-1.95141e-09
6.28298e-10
2.19808e-09
9.13488e-10
-1.01419e-09
-4.1009e-09
-7.68497e-09
-3.28e-09
-3.32103e-10
-2.49898e-09
-2.18663e-09
-3.64125e-10
5.32355e-11
-1.38268e-11
-1.02875e-11
2.5783e-10
3.61304e-10
1.01413e-10
-3.49342e-11
-2.28738e-10
-2.50737e-10
-9.90638e-11
1.23944e-10
2.89601e-10
-2.02945e-10
3.28854e-10
2.33288e-09
2.36956e-09
2.24893e-10
-9.66585e-11
2.85603e-10
2.80559e-10
-6.38974e-11
2.62028e-10
2.56625e-09
2.67381e-09
2.03554e-09
1.34279e-09
-1.75323e-09
-2.18159e-09
2.50303e-09
5.44484e-09
4.15713e-09
1.64371e-09
-6.26782e-10
-6.54237e-10
-3.18102e-09
-4.7908e-09
-6.35045e-10
-8.67829e-10
-2.2459e-09
-1.03945e-09
-3.57429e-11
-2.45118e-10
-3.89444e-11
3.06867e-10
2.81933e-10
1.53167e-10
8.43293e-11
-1.01942e-10
-2.8358e-10
-1.51368e-10
-2.29713e-10
-3.84062e-11
1.63689e-10
-4.02174e-10
-1.84241e-10
-6.15457e-10
-6.6848e-10
1.45459e-11
-6.56782e-11
-7.33638e-11
-3.02986e-10
-3.79434e-10
2.02733e-09
4.80603e-09
4.41523e-09
1.04933e-09
-1.06433e-09
3.08948e-09
7.27887e-09
4.96056e-09
1.45028e-09
1.18586e-09
9.77124e-10
-9.43495e-10
-1.84648e-09
-4.40672e-09
-2.86516e-09
-1.67672e-11
-1.06918e-09
-1.49717e-09
-6.22408e-10
-1.1476e-09
-6.80408e-10
-3.26102e-11
4.94007e-10
3.58406e-10
-1.08011e-10
-1.09467e-10
-1.15556e-10
-1.98141e-10
-1.80164e-10
-2.53742e-10
1.23742e-10
-7.05929e-10
-1.74347e-09
-9.23091e-10
-8.14051e-11
-6.3797e-10
-9.53206e-10
-4.07644e-10
-1.91412e-10
-2.94942e-11
1.21509e-09
2.63568e-09
1.87403e-09
3.09885e-11
2.35702e-09
6.46438e-09
4.21388e-09
-7.21001e-11
2.6505e-10
6.59777e-10
9.62164e-10
1.16329e-09
-2.18917e-09
-4.03932e-09
-4.55276e-09
-1.77871e-09
-7.91625e-11
-8.06231e-10
-1.33131e-09
-1.26497e-09
-1.12708e-09
-5.06048e-10
-3.33855e-10
-6.16647e-10
-2.56721e-10
-2.65004e-12
-2.55167e-11
5.46512e-11
-1.21275e-10
-3.69838e-10
-4.61757e-10
-1.01134e-09
-1.04276e-09
6.30816e-12
-5.50831e-10
-1.49168e-09
-1.08193e-09
-1.10458e-10
2.32096e-10
5.3173e-11
4.26393e-11
1.32344e-10
2.99747e-10
2.34593e-09
4.54584e-09
2.17062e-09
-2.39916e-10
1.89786e-09
3.79328e-09
2.78841e-09
3.29151e-10
7.3339e-10
1.10654e-09
-2.01672e-09
-2.79573e-09
-1.92107e-09
-4.63107e-10
-1.84487e-10
-8.15126e-10
-1.27519e-11
2.95026e-11
-6.0033e-10
-1.32711e-09
-8.42235e-10
-8.82032e-11
-8.07185e-11
-1.57556e-10
2.16152e-10
2.14157e-10
-3.25643e-10
-3.64802e-10
-2.29517e-10
-1.77475e-10
-5.79842e-10
-8.76071e-10
-6.06857e-10
-1.95974e-10
6.44813e-11
2.91263e-11
6.89539e-11
4.01422e-10
7.68874e-10
1.26798e-09
1.29245e-09
2.28277e-10
-1.40448e-10
5.071e-10
5.13077e-10
3.6947e-10
9.70227e-10
1.64756e-09
3.57737e-10
-6.41973e-11
1.26682e-10
-6.53475e-10
-4.63008e-10
-2.81039e-10
-3.20981e-10
-2.42491e-10
5.92814e-10
4.31323e-10
1.55627e-12
-4.59102e-10
-5.35826e-10
-3.38399e-10
-2.56759e-10
-2.72769e-10
-1.123e-10
7.40396e-11
-1.0667e-10
1.48433e-10
6.39707e-10
2.04927e-10
-3.07505e-10
-4.03937e-10
-5.31188e-10
-4.87531e-10
-2.15975e-10
-1.15143e-10
-1.58606e-10
1.91625e-11
3.33217e-10
3.55354e-10
-4.65444e-11
-5.46722e-10
-8.02085e-10
-7.05315e-10
-2.36618e-10
9.66479e-11
-2.48045e-10
-3.69481e-10
1.12784e-09
1.65651e-09
7.01261e-10
2.09e-11
-3.40326e-10
-9.5663e-11
2.85881e-10
4.97474e-10
5.62034e-10
4.96545e-10
2.19568e-10
5.60179e-11
7.74846e-11
-2.88269e-11
-2.2659e-10
-1.87434e-10
-1.90683e-10
-2.87283e-10
7.03373e-11
5.76378e-10
6.78929e-10
2.76062e-10
1.49277e-10
3.32576e-10
2.3246e-10
-2.67317e-11
-1.56764e-10
-1.52723e-10
-4.55695e-11
-1.70053e-11
-2.24446e-10
-6.21787e-10
-9.92036e-10
-1.00506e-09
-5.7057e-10
-7.08138e-11
8.63957e-11
-1.71814e-10
-6.97324e-10
-8.55979e-10
-7.22096e-12
1.29281e-09
1.54419e-09
6.43586e-10
-2.20771e-11
1.97489e-12
2.76912e-10
4.61556e-10
4.18553e-10
2.27814e-10
4.33029e-11
2.09503e-10
5.76574e-10
7.51171e-10
6.6382e-10
4.98838e-10
2.05435e-10
-4.64483e-10
-6.69259e-10
-2.37433e-10
-1.43427e-10
-5.6677e-11
6.07841e-11
-2.19626e-10
-4.82993e-10
-4.27115e-10
-2.2429e-10
4.0332e-11
2.00545e-10
6.64314e-11
-1.34097e-10
-1.27636e-10
-6.98103e-11
-1.4133e-10
-1.75601e-10
-9.35075e-11
-6.96368e-11
-1.03657e-10
-1.74996e-10
-2.00955e-10
1.17642e-10
3.82348e-10
4.43705e-10
4.3973e-10
1.72508e-10
-3.67265e-11
8.83636e-11
3.36851e-10
-4.52601e-11
1.67286e-11
8.03225e-11
6.34547e-11
-3.67951e-11
1.21054e-10
5.3508e-10
5.2012e-10
6.00141e-11
-3.41846e-11
9.03127e-11
-8.55001e-11
-2.30793e-10
-8.00841e-11
-7.028e-11
-3.01734e-10
-2.3996e-10
3.26408e-11
4.90159e-11
-3.26566e-11
8.5841e-11
2.70231e-10
2.39784e-10
-1.11833e-10
-4.81657e-10
-4.75586e-10
-2.45694e-10
-1.08755e-10
-4.0601e-11
3.7419e-11
5.48399e-11
8.56727e-12
4.14802e-11
7.40143e-11
2.10342e-11
2.07527e-11
2.96451e-11
-2.20655e-11
-7.48626e-11
-8.22605e-11
-2.37675e-11
1.01821e-10
1.96729e-10
-8.33986e-12
-3.03405e-10
-2.60587e-10
-2.59501e-11
-9.13988e-11
-5.10186e-10
-7.58167e-10
-5.88138e-10
-3.40486e-10
-2.10571e-10
-4.38962e-11
2.08926e-10
2.81482e-10
-7.83047e-11
-4.9569e-10
-4.57568e-10
-1.30716e-10
4.37809e-11
-2.62772e-11
-1.1622e-10
-6.3522e-11
4.29614e-11
9.93989e-11
5.42988e-11
-4.27668e-11
-4.2058e-11
8.78238e-11
2.09881e-10
2.04509e-10
9.40428e-11
3.39264e-11
6.02346e-11
9.24859e-11
8.87002e-11
5.92087e-11
2.09667e-11
-2.483e-11
-1.87932e-09
-1.20394e-09
-1.11631e-09
-9.47331e-10
-7.89965e-10
-1.11162e-09
-1.90844e-09
-2.26965e-09
-1.64972e-09
-6.23087e-10
-2.45935e-10
-1.36153e-09
-3.52483e-09
-5.71088e-09
-7.55943e-09
-1.03545e-08
-1.46111e-08
-2.05501e-08
-2.51182e-08
-1.90304e-08
-1.40234e-09
3.71975e-09
5.82038e-09
1.39731e-08
1.69887e-08
1.63653e-08
1.29618e-08
7.88335e-09
2.63852e-09
2.36008e-09
1.27038e-08
2.82482e-08
3.16099e-08
1.3776e-08
-4.28838e-09
3.11278e-09
9.7518e-09
3.73053e-09
-5.1468e-10
-2.63232e-09
-2.1265e-09
-2.25377e-09
-1.9108e-09
-1.70324e-09
-1.27953e-09
-5.92365e-10
-4.39033e-10
-1.42555e-09
-2.8742e-09
-2.82135e-09
-1.67336e-09
-1.1603e-09
-1.50592e-09
-2.04438e-09
-2.05108e-09
-1.57372e-09
-1.39479e-09
-2.43442e-09
-5.94619e-09
-1.33115e-08
-1.31871e-08
-6.11351e-10
-7.73543e-09
-1.00632e-09
1.57717e-08
2.20329e-08
1.80584e-08
8.89517e-09
2.15796e-09
-1.12574e-10
1.66415e-09
8.03295e-09
1.76779e-08
2.28112e-08
1.39712e-08
-6.1173e-10
6.78959e-09
1.05884e-08
4.10784e-09
-2.11536e-10
5.09589e-10
4.34163e-11
1.27218e-09
2.05634e-09
1.59341e-09
6.7702e-10
4.29839e-10
7.57501e-10
8.80129e-10
9.196e-10
1.01589e-09
9.991e-10
1.35038e-09
1.98552e-09
2.49867e-09
2.43522e-09
1.96003e-09
3.20646e-09
7.38313e-09
1.21637e-08
1.2193e-08
9.7525e-09
-7.8635e-09
-2.14433e-08
-7.82312e-09
-2.90251e-09
-4.2628e-09
-5.58172e-09
-3.44236e-09
6.86184e-10
1.77707e-09
-1.57261e-09
-5.90347e-09
-6.33217e-09
-2.41399e-09
1.11892e-09
3.80662e-09
1.33444e-08
1.03216e-08
3.73669e-09
1.01768e-09
1.95486e-10
6.71752e-10
8.87276e-10
5.23321e-10
7.2386e-11
4.85789e-11
6.03643e-10
1.14632e-09
1.21772e-09
3.59006e-10
-6.86384e-10
-7.60349e-10
-3.99103e-10
-5.43162e-10
-1.56402e-09
-2.49315e-09
-1.25625e-09
2.85477e-09
7.17907e-09
1.04423e-08
1.25174e-08
-5.3118e-09
-2.86859e-08
-1.25316e-08
-4.38866e-09
-3.55115e-09
-1.55391e-09
1.95677e-09
5.33447e-09
5.92675e-09
3.51298e-09
-2.732e-10
-3.29705e-09
-3.61941e-09
5.86498e-10
7.88345e-09
1.35752e-08
1.10576e-08
3.66488e-09
4.50023e-10
-2.52602e-10
-3.0543e-10
6.27474e-11
7.20265e-11
-1.80103e-11
3.56867e-11
1.1458e-10
5.04601e-11
-2.79814e-11
-1.57829e-10
-6.7175e-10
-7.59578e-10
-3.35101e-10
-4.29104e-10
-1.54415e-09
-2.53115e-09
-1.79631e-09
5.35339e-10
3.8273e-10
-4.96808e-09
-2.09901e-09
-4.55658e-10
-2.49208e-08
-1.20863e-08
1.18596e-10
-7.54797e-10
-4.56723e-10
2.32508e-10
1.15444e-09
1.61423e-09
1.12889e-09
3.26493e-10
-8.28338e-13
5.47052e-10
1.11534e-09
2.92078e-09
7.86727e-09
9.63198e-09
2.82041e-09
-1.50142e-09
-5.11123e-10
-9.40171e-10
-3.0388e-10
1.59306e-10
1.23968e-10
-3.19588e-11
-3.69466e-10
-1.08473e-09
-1.0106e-09
-2.92299e-10
1.25167e-10
1.60074e-10
-5.739e-12
-1.00175e-09
-2.50088e-09
-2.69705e-09
-1.46656e-09
-3.11103e-11
-1.94021e-11
-4.94759e-09
-9.60931e-09
-1.67649e-10
-1.29261e-08
-1.22065e-08
2.0475e-10
-7.22952e-11
-8.27844e-11
3.49165e-10
1.28305e-10
3.20018e-11
-3.4574e-11
-5.83936e-10
-1.35858e-09
-7.94727e-10
6.48774e-10
-1.12521e-09
-7.92291e-10
4.8912e-09
3.11639e-09
-3.49769e-09
-1.78143e-09
-1.164e-09
-6.43964e-10
2.6181e-10
3.08018e-10
-4.47433e-12
2.19716e-10
2.54579e-10
-9.90228e-10
-4.95365e-10
6.61453e-10
1.47455e-09
7.79792e-10
-2.66729e-09
-5.02635e-09
-3.01026e-09
-4.26092e-10
9.15881e-11
2.2924e-10
2.01281e-09
8.35412e-10
2.98475e-10
-2.15499e-09
-8.32603e-09
-2.96094e-09
2.31611e-10
-1.77784e-10
3.40682e-10
1.41641e-09
2.17946e-09
2.5943e-09
1.82408e-09
-1.11811e-09
-3.72193e-09
-2.82354e-09
-1.96399e-09
-3.85606e-09
-1.20558e-09
2.32576e-09
-2.24431e-09
-3.185e-09
-1.86991e-09
-7.93642e-10
3.22031e-10
5.18913e-10
4.73217e-11
3.82003e-10
2.69344e-09
2.41749e-09
-5.00894e-10
-2.09187e-10
2.00991e-09
3.42497e-09
-1.03004e-09
-4.89937e-09
-2.58463e-09
3.94343e-10
2.10345e-10
2.66023e-10
3.81263e-09
5.14043e-09
1.33065e-09
2.44922e-09
-4.71354e-09
-3.51377e-09
1.46931e-09
5.01556e-10
-1.56177e-10
4.6908e-10
1.47758e-09
2.72521e-09
3.56759e-09
1.82629e-09
-3.09517e-09
-5.38149e-09
-3.63395e-09
-3.30496e-09
-3.05654e-09
3.21285e-10
-6.74063e-10
-4.13978e-10
-2.64885e-09
-8.81393e-10
6.34366e-10
8.59666e-10
3.67488e-10
6.77864e-11
1.0249e-09
4.88169e-09
3.9432e-09
-1.09869e-09
2.40299e-10
4.00171e-09
1.23466e-09
-1.8452e-09
-2.85347e-10
1.17733e-09
3.58409e-10
6.67783e-10
3.38992e-09
3.79068e-09
6.70354e-10
2.12856e-09