/*--------------------------------*- C++ -*----------------------------------*\
| =========                 |                                                 |
| \\      /  F ield         | OpenFOAM: The Open Source CFD Toolbox           |
|  \\    /   O peration     | Version:  5.0                                   |
|   \\  /    A nd           | Web:      www.OpenFOAM.org                      |
|    \\/     M anipulation  |                                                 |
\*---------------------------------------------------------------------------*/
FoamFile
{
    version     2.0;
    format      ascii;
    class       volScalarField;
    location    "50.4676134421789371";
    object      dissUWMean;
}
// * * * * * * * * * * * * * * * * * * * * * * * * * * * * * * * * * * * * * //

dimensions      [0 2 -3 0 0 0 0];

internalField   nonuniform List<scalar> 
60000
(
-7.89403e-09
9.70608e-10
3.15263e-09
-6.95537e-10
-4.01164e-09
-1.00291e-09
2.70461e-09
2.49295e-09
-3.86816e-09
-1.47573e-08
-1.76943e-08
-1.02971e-08
-3.02845e-09
-2.26488e-10
2.5278e-09
7.13947e-09
1.14188e-08
1.61984e-08
2.44352e-08
3.14664e-08
2.17254e-08
-1.63466e-08
-5.99432e-08
-7.94417e-08
-7.57026e-08
-5.90295e-08
-4.59396e-08
-4.18437e-08
-2.91697e-08
-8.0346e-09
7.40291e-09
2.63802e-08
4.51796e-08
5.04595e-08
3.38798e-08
5.33178e-09
-1.3312e-10
-3.73363e-09
-1.6006e-08
-1.64378e-08
-5.31782e-09
-1.9515e-09
4.05858e-10
4.59197e-10
-5.61996e-10
-1.21631e-09
-2.82192e-10
3.98116e-10
-9.00446e-10
-5.49853e-09
-8.69983e-09
-6.61193e-09
-1.84948e-09
1.57564e-10
4.39415e-10
2.44816e-09
4.05492e-09
3.17532e-09
1.70859e-09
1.10995e-09
1.71005e-09
-9.24765e-10
-1.08009e-08
-1.43619e-08
-8.49231e-09
-1.85563e-10
5.14547e-09
5.93482e-09
4.33803e-09
2.84433e-09
2.64642e-10
-1.60394e-09
8.18522e-11
3.05245e-09
2.97476e-09
5.99112e-11
4.41832e-10
2.03321e-09
-8.66776e-10
-5.55738e-09
-9.42327e-10
-1.19531e-09
-2.68954e-10
2.59333e-10
6.19319e-11
1.6946e-10
-1.25489e-09
-1.40436e-09
-4.06578e-10
9.10632e-10
2.09766e-10
-5.35422e-10
7.73298e-11
3.01539e-10
-7.43903e-10
-9.66014e-10
-5.73175e-10
-1.45167e-10
7.12036e-10
2.03076e-09
5.4466e-09
1.12573e-08
1.28747e-08
1.09132e-08
6.56492e-09
-1.93505e-09
-1.06385e-08
-1.44969e-08
-1.17083e-08
-5.18983e-09
4.79563e-10
4.25557e-09
5.03931e-09
3.96782e-09
2.15997e-09
-2.93196e-10
-1.60386e-09
-2.32066e-09
-1.09864e-09
2.39111e-10
5.24582e-10
6.00388e-10
8.62196e-10
4.54984e-10
3.45138e-10
8.20905e-10
-5.46123e-10
-3.01126e-09
-3.29521e-09
-9.25448e-10
1.22736e-09
7.19368e-10
1.05722e-09
8.96703e-10
-1.28906e-09
-2.01829e-09
-7.42996e-10
-2.50548e-10
-3.6106e-10
-1.71183e-09
2.45675e-10
5.14772e-09
6.65931e-09
6.75127e-09
5.7162e-09
4.93394e-10
-5.08516e-09
-7.18637e-09
-6.36177e-09
-4.01175e-09
-1.32941e-09
1.33593e-09
3.58299e-09
3.40838e-09
3.81236e-10
-2.28341e-09
-3.10178e-09
-2.94742e-09
-3.47094e-09
-1.30441e-09
-4.51383e-10
-3.0996e-10
-3.43205e-10
5.58884e-10
4.89483e-10
5.31933e-10
3.29133e-10
-1.74121e-09
-3.7059e-09
-3.29881e-09
3.84246e-10
-1.04416e-10
-1.36904e-09
-5.2946e-11
-9.802e-10
-1.88919e-09
9.77467e-11
4.08272e-10
2.55229e-10
-7.84145e-10
-1.09197e-09
3.7374e-09
3.09578e-09
1.55824e-09
3.34714e-09
2.07523e-09
5.50768e-11
-3.92129e-10
-2.67534e-10
4.06751e-10
9.29154e-10
5.45071e-10
1.11739e-09
2.61428e-09
1.93307e-09
-1.18162e-09
-1.78772e-09
-6.64551e-10
-1.25453e-09
-2.6789e-09
-2.25724e-09
-5.04327e-12
-1.03782e-09
-1.1471e-09
-1.65529e-10
5.06351e-11
-5.75377e-11
-1.05215e-10
-1.82895e-09
-4.32387e-09
-2.94857e-09
6.22695e-10
-1.32215e-09
-2.2482e-09
-1.44096e-09
-7.28539e-10
1.11622e-09
2.58889e-10
-4.48224e-10
8.60778e-10
7.90964e-10
5.34631e-09
4.53944e-09
1.74497e-09
3.27201e-09
1.81585e-09
5.44308e-10
6.31644e-11
-1.77846e-10
-3.04181e-10
-1.39762e-10
-1.48486e-10
-2.57935e-10
6.20123e-10
2.2066e-09
1.41473e-09
-4.34358e-10
5.88016e-10
1.44767e-09
-1.0125e-09
-2.13048e-09
-1.94701e-09
8.69809e-11
-4.38944e-10
-5.79261e-10
-3.96299e-10
-8.41507e-10
-5.90904e-10
-9.09352e-11
-2.02803e-09
-4.97802e-09
-2.30634e-09
-1.52447e-10
-1.67754e-09
-1.41489e-09
8.14882e-10
7.85391e-10
-7.70108e-10
-6.65281e-10
-1.15562e-10
1.78555e-09
6.8284e-09
4.75689e-09
8.26243e-10
1.87243e-09
1.28156e-09
3.92213e-10
-7.48541e-11
-1.04162e-10
-2.06332e-10
-5.03242e-10
-8.67467e-10
-6.5691e-10
-3.4818e-10
9.27033e-11
1.40027e-09
1.0876e-09
1.91448e-10
7.97916e-10
8.12522e-10
-5.62084e-10
-2.64658e-09
-1.23842e-09
-1.10413e-10
-2.81185e-10
-2.19986e-10
-5.40601e-10
-1.33513e-09
-8.95717e-10
-4.11663e-10
-2.41563e-09
-5.46702e-09
-3.7715e-09
-2.25043e-09
-1.13179e-09
2.39231e-10
-7.70319e-10
-1.543e-09
-2.08581e-10
1.6699e-10
-5.63548e-10
5.85078e-09
2.62929e-09
-2.50843e-09
1.23848e-10
1.01857e-09
1.69506e-10
-1.26449e-10
-3.84605e-11
-2.91319e-10
-6.24221e-10
-9.70638e-10
-1.0322e-09
-4.86353e-10
-6.53863e-10
-5.77149e-10
7.58611e-10
9.01453e-10
8.72175e-11
3.41482e-10
-3.95587e-10
-1.63509e-09
-1.2779e-09
-5.54592e-10
-8.75524e-10
-5.68763e-10
2.2576e-10
8.16796e-11
-1.38105e-09
-2.04939e-09
-5.38657e-10
-3.54832e-09
-8.20503e-09
-5.40645e-09
-1.79208e-09
-9.2977e-10
-9.58015e-10
-9.41972e-10
2.06575e-11
1.62979e-09
-9.84959e-10
2.47216e-09
1.3033e-09
-3.7029e-09
-1.82137e-10
8.68303e-10
1.16906e-10
-3.35336e-11
2.80404e-11
-3.03619e-10
-7.17194e-10
-8.48844e-10
-7.1489e-10
-3.71963e-10
-2.99821e-10
-8.3365e-10
-5.0782e-10
3.77143e-10
2.56545e-10
-1.82137e-10
-5.1346e-10
-8.92691e-10
-1.84528e-10
-6.59708e-10
-1.37206e-09
-7.40011e-10
-3.622e-10
1.5896e-10
-4.32657e-11
-2.69675e-09
-2.19668e-09
-4.30624e-10
-7.76962e-09
-8.95055e-09
-2.9479e-09
-6.08138e-10
-6.93197e-10
-3.34916e-10
3.38995e-10
1.09431e-09
1.10652e-09
1.66012e-09
2.57418e-09
-1.24101e-09
6.82007e-10
9.31211e-10
2.30225e-10
9.37353e-11
4.29162e-11
-2.83185e-10
-6.32833e-10
-7.40358e-10
-3.54293e-10
2.00208e-10
2.80981e-10
-1.97947e-10
-4.89542e-10
-2.25997e-10
-8.89553e-11
-1.47991e-10
-5.14256e-10
-4.97078e-10
6.88253e-10
-8.08628e-10
-1.04442e-09
1.11992e-10
-1.9806e-10
-5.50494e-10
-2.21594e-10
-1.36228e-09
-3.061e-09
-3.6254e-10
-3.24306e-09
-7.45328e-09
-2.74016e-09
-3.51131e-10
-5.69822e-10
-1.31828e-10
4.74541e-10
2.30339e-10
9.33588e-10
2.83145e-09
4.71163e-09
2.78449e-09
1.6515e-09
8.64641e-10
3.58783e-10
1.38124e-10
-1.57096e-11
-2.65957e-10
-4.68976e-10
-5.34331e-10
-2.32762e-10
5.05933e-10
8.3082e-10
3.73304e-10
-9.40417e-11
-1.39194e-10
-1.7887e-10
-2.48337e-10
-3.83339e-10
-3.62066e-10
7.40118e-10
-4.24229e-10
-8.22216e-11
6.68739e-10
2.71293e-10
3.46865e-11
-1.05381e-11
-6.32095e-10
-1.98534e-09
-1.43485e-09
-7.84941e-10
-3.9791e-09
-2.58255e-09
-2.09523e-10
-1.7691e-11
-1.15429e-11
3.26105e-10
3.91259e-10
-1.04918e-10
1.84805e-09
4.54194e-09
3.80846e-09
1.33861e-09
4.83886e-10
1.8572e-10
-1.64702e-11
-9.18833e-11
-2.27232e-10
-3.08657e-10
-3.11166e-10
-1.59334e-10
4.45291e-10
9.82474e-10
6.55209e-10
1.15684e-10
5.82477e-11
5.99888e-12
-2.0643e-10
-4.51254e-12
9.19382e-11
3.75326e-10
1.01728e-10
4.43679e-10
5.4531e-10
2.68798e-10
3.37828e-10
3.3717e-10
-2.43627e-10
-1.46874e-09
-1.38517e-09
-5.99934e-10
-2.51461e-09
-2.62986e-09
2.37937e-10
6.73459e-10
-1.97591e-11
4.23693e-10
8.26556e-10
-3.84748e-10
1.90882e-10
3.00969e-09
2.28263e-09
6.81308e-10
1.79424e-10
-1.84796e-10
-1.22674e-10
-7.74919e-11
-1.58407e-10
-1.7542e-10
-1.46508e-10
-1.72505e-10
1.85742e-10
7.87164e-10
7.08382e-10
1.71763e-10
6.92949e-11
1.87861e-10
-3.77436e-12
1.54582e-10
1.97573e-10
-2.30993e-11
1.70618e-10
5.18942e-10
3.22199e-10
-5.70065e-11
-3.58826e-12
3.57661e-10
1.90848e-10
-1.49092e-09
-1.80491e-09
-3.41854e-10
-1.99668e-09
-2.2847e-09
6.94932e-10
5.85333e-10
-1.09677e-10
6.11113e-10
7.71959e-10
-2.67118e-10
-7.6908e-10
9.75636e-10
1.07163e-09
6.11062e-10
-6.95211e-12
-2.34125e-10
-1.80444e-10
-1.20656e-10
-1.73101e-10
-2.14364e-10
7.57851e-11
5.09597e-11
-2.04516e-10
4.06102e-10
7.58997e-10
3.50753e-10
4.88823e-11
1.27451e-10
1.73742e-10
1.40539e-10
7.78991e-11
-2.4035e-10
-1.44767e-10
6.00279e-11
9.36466e-11
1.2752e-11
-2.63358e-10
-1.61188e-10
3.881e-10
-9.10624e-10
-2.67326e-09
-5.60285e-10
-9.89005e-10
-2.04372e-09
-2.93175e-10
5.1676e-11
1.88754e-10
2.4765e-10
1.88047e-10
-2.97018e-10
-7.63257e-10
-2.59254e-10
5.69712e-10
4.20108e-10
-4.05742e-10
-5.7507e-10
-1.42972e-10
9.60414e-11
-9.72332e-11
-2.43186e-10
4.41014e-10
1.13048e-09
1.21956e-10
-1.83526e-10
6.7128e-10
4.79555e-10
3.0622e-11
1.30047e-11
9.47408e-11
-3.56748e-11
-5.00147e-12
-1.97192e-10
-2.13406e-10
-8.17146e-11
-1.63035e-11
1.33649e-10
1.6634e-10
-1.35696e-10
3.6084e-12
-3.13102e-10
-2.1048e-09
-1.04699e-09
-1.33627e-10
-1.73285e-09
-8.92738e-10
1.21339e-10
-8.24934e-11
4.80622e-11
1.41156e-10
-1.40297e-10
-7.96347e-10
-5.64881e-10
3.08223e-10
-1.9894e-10
-8.59736e-10
-2.72041e-10
3.03222e-10
2.77798e-10
8.97792e-11
3.85502e-11
5.68699e-10
1.54932e-09
1.03007e-09
-3.425e-10
1.69472e-10
4.26563e-10
-1.31805e-10
-1.39095e-10
-7.68795e-11
-2.42447e-10
-2.27507e-10
-3.27757e-10
-2.24499e-10
-1.10175e-10
-1.9878e-10
-9.77373e-12
2.60424e-10
7.89633e-11
-1.86541e-10
-3.75583e-10
-1.22187e-09
-7.57891e-10
2.52009e-10
-6.44058e-10
-5.05274e-10
-6.34878e-11
1.72224e-10
3.73668e-10
2.42457e-10
5.35289e-11
-9.39494e-11
-4.86462e-10
-4.31247e-10
-1.39513e-10
1.19632e-09
1.94266e-09
7.27906e-10
1.94244e-10
6.33748e-10
6.03649e-10
2.58825e-10
4.74088e-10
7.15165e-10
-1.09675e-10
-2.53819e-10
3.35998e-10
4.9617e-11
-2.23347e-10
-2.10556e-10
-1.6349e-10
-1.11952e-10
1.68089e-11
9.03047e-11
-1.81913e-10
-2.16544e-10
3.1847e-10
4.10467e-10
1.63945e-11
-1.97246e-10
-2.34873e-10
-5.63883e-10
-1.04936e-10
5.65733e-10
-1.36598e-10
-4.07716e-10
2.62506e-10
3.34307e-10
5.04764e-11
2.28665e-10
1.95219e-10
-3.035e-11
-3.99723e-10
-5.97731e-10
5.82827e-10
2.47439e-09
1.63568e-09
3.37772e-11
5.0071e-10
4.13131e-10
1.54452e-10
-7.93133e-11
-8.04661e-10
-3.90406e-10
-7.95341e-12
-2.84948e-10
-5.05321e-11
2.12806e-10
1.46331e-10
-5.05866e-11
6.11206e-10
1.05247e-09
7.67359e-10
-3.97664e-10
-4.51519e-10
5.09708e-10
4.68641e-10
-2.35454e-10
-4.02017e-10
-2.30962e-10
-7.80441e-12
6.45124e-11
1.20034e-10
1.73139e-10
-5.63405e-11
2.86582e-10
4.32858e-10
-1.86209e-10
-2.85086e-10
3.3377e-10
3.14993e-10
-3.36962e-10
-2.27268e-10
6.15203e-10
1.00366e-09
1.84493e-10
2.02215e-10
1.16025e-09
4.73399e-10
-2.3248e-10
2.27015e-10
-8.6166e-11
-8.95681e-10
-5.26992e-10
2.4306e-10
6.69852e-11
-1.53129e-10
-2.14056e-11
1.55072e-10
3.23418e-10
5.12363e-10
1.31806e-09
9.25859e-10
-5.82371e-10
-5.0469e-10
2.9015e-10
2.6002e-10
-2.79669e-10
-4.29227e-10
-2.47751e-11
-2.64341e-11
-2.39639e-10
-4.21242e-10
-3.96952e-10
5.16425e-11
3.55229e-10
1.33249e-10
-2.33406e-10
-2.87457e-10
2.36672e-12
2.09439e-10
4.21916e-11
1.16127e-10
3.43706e-10
1.62697e-10
1.8768e-10
3.55618e-10
1.46596e-11
-2.69525e-10
-1.05719e-10
3.03851e-10
-2.92039e-10
-1.76621e-09
-7.5855e-10
9.23447e-10
5.81577e-10
-1.40992e-10
-5.44073e-11
2.18714e-10
2.31629e-10
9.78559e-12
3.16791e-11
1.61309e-10
1.68776e-10
5.65621e-11
-5.23231e-11
4.99391e-11
1.64672e-10
-6.84087e-11
7.2285e-11
5.08377e-10
1.57804e-10
-3.56909e-10
-3.36512e-10
-5.90066e-11
7.55095e-13
-1.21455e-10
-1.79592e-10
-2.14345e-10
-3.62322e-10
-3.97309e-10
-2.09157e-10
-1.3646e-10
-1.69781e-10
-1.30235e-10
-1.00258e-10
-1.3146e-10
-1.85064e-10
-2.78832e-10
-3.16077e-10
-7.9063e-11
-5.51189e-11
-1.17094e-09
-1.60895e-09
3.57267e-11
6.67359e-10
-1.8773e-10
-4.20331e-10
5.48187e-12
1.37732e-10
7.00786e-11
-7.5482e-11
-1.83897e-10
5.41226e-12
1.58861e-10
8.75461e-11
2.00806e-10
3.86336e-10
1.09289e-10
5.77724e-11
9.15922e-10
9.36537e-10
-7.35467e-11
-1.81256e-10
4.53265e-11
-2.68973e-10
-4.52769e-10
-2.45446e-10
-1.79497e-10
-4.29794e-10
-4.92773e-10
-1.76198e-10
1.47235e-11
-1.62432e-10
-3.51266e-10
-3.50835e-10
-2.80599e-10
-1.98901e-10
-1.06815e-10
-4.57068e-11
3.95479e-11
-7.28461e-11
-7.58957e-10
-8.42011e-10
-2.6195e-10
-1.02144e-10
-2.00242e-10
-2.4051e-10
-6.53024e-11
8.92078e-11
2.12817e-10
1.51234e-10
2.20979e-11
7.73898e-11
1.78642e-10
1.18397e-10
1.57704e-10
3.03356e-10
3.07493e-10
3.71578e-10
6.07146e-10
4.7635e-10
4.82483e-11
8.70881e-11
1.24764e-10
-1.50584e-10
-2.28722e-10
2.06161e-11
1.38926e-10
9.4283e-12
2.44426e-11
1.24399e-10
-4.25181e-11
-2.39217e-10
-1.53585e-10
4.0939e-11
6.7513e-11
2.92777e-11
1.71452e-10
2.38937e-10
1.48768e-11
-1.96453e-10
-3.6434e-10
-3.97702e-10
-9.96552e-11
-1.3755e-10
-3.08566e-10
-1.42038e-10
6.87742e-11
1.58677e-10
1.15327e-10
2.6805e-11
-6.72947e-11
-3.47301e-12
7.59771e-11
-1.30647e-11
-9.56844e-11
-1.45466e-11
6.84366e-11
2.46355e-10
5.47215e-10
4.13144e-10
-9.67908e-12
-1.51765e-11
2.02077e-10
6.45087e-11
-1.87314e-10
-2.01783e-10
-1.31929e-10
-1.23008e-10
-8.489e-11
-9.1075e-12
3.17983e-11
-2.89906e-12
-3.26782e-11
2.22981e-11
5.47114e-11
3.64615e-11
1.15598e-10
1.99326e-10
-7.22685e-12
-4.14549e-10
-4.04114e-10
-1.60525e-12
4.21797e-11
-1.78775e-10
-2.20269e-10
-6.08465e-11
7.02094e-11
1.16499e-10
2.25145e-10
1.2291e-10
9.38317e-11
2.60125e-12
-1.20605e-10
-9.91791e-11
-1.63698e-10
-3.71318e-10
-2.75341e-10
-2.30214e-11
-1.77856e-11
-7.05865e-11
-6.40795e-11
-5.43335e-11
7.73206e-12
1.16097e-10
1.36581e-10
6.31203e-11
-1.59717e-11
-6.26926e-11
-2.94517e-11
2.96214e-11
-6.4122e-11
-2.28773e-10
-1.74958e-10
1.17175e-11
1.74494e-11
-9.19317e-11
-7.61984e-12
1.99002e-10
1.92213e-10
-1.31266e-10
-3.75525e-10
-1.565e-10
1.09926e-10
5.57223e-11
-5.09892e-11
2.84663e-11
2.07374e-10
2.92985e-10
-1.79914e-09
-1.04562e-09
-3.33559e-10
5.24715e-10
1.62253e-09
3.39517e-09
5.11219e-09
2.06679e-09
-2.80072e-09
-8.25489e-09
-1.34362e-08
-1.66983e-08
-1.83862e-08
-1.86561e-08
-1.83328e-08
-2.16754e-08
-2.78266e-08
-1.88054e-08
2.17034e-08
6.32499e-08
5.713e-08
3.12752e-08
-1.19688e-08
-6.76247e-08
-9.68651e-08
-1.01871e-07
-8.72053e-08
-6.29128e-08
-3.89676e-08
-1.6233e-08
1.27756e-08
4.35295e-08
5.85036e-08
4.68353e-08
1.8415e-08
-5.19852e-09
-1.43062e-08
-4.90881e-09
-9.0105e-12
-7.84779e-10
-7.96316e-10
-3.42671e-10
-3.33429e-10
-1.0582e-09
-1.81374e-09
-1.62124e-09
-1.92956e-11
1.62956e-09
9.03379e-10
-7.01365e-11
-1.23177e-09
-2.16284e-09
-1.93191e-09
-1.13696e-09
1.28289e-10
7.10734e-10
-1.05252e-09
-3.83537e-09
-3.38722e-09
3.05505e-09
3.71442e-09
-1.80185e-09
2.77877e-09
-5.5532e-09
-1.28346e-08
-7.46707e-09
4.17259e-10
3.99194e-09
3.74108e-09
1.52823e-09
-2.12799e-10
2.73806e-10
1.99754e-09
3.18623e-09
1.98504e-09
-7.27077e-10
-5.28188e-10
1.03116e-09
2.79842e-09
1.61268e-10
-3.88261e-10
-3.26099e-10
-3.77452e-11
-2.49062e-10
-2.05101e-10
3.41656e-10
4.36439e-10
-4.97565e-10
-1.53089e-09
-1.52905e-09
9.86287e-12
2.89854e-10
-7.49723e-10
-2.76351e-09
-4.57691e-09
-5.83866e-09
-6.04575e-09
-1.09215e-09
8.89493e-09
1.21761e-08
1.5371e-09
-1.05502e-08
-7.84533e-10
1.12527e-08
8.31724e-09
1.91352e-09
-6.53473e-09
-1.21951e-08
-1.28493e-08
-1.06188e-08
-7.21375e-09
-3.24437e-09
-3.21081e-10
-6.49652e-10
-2.25429e-09
-1.53957e-09
-1.17447e-09
-4.69314e-10
5.59173e-10
1.02798e-09
2.8992e-10
-3.2252e-10
-3.99664e-11
-3.5181e-10
-4.87331e-10
-2.52349e-11
6.87679e-10
-2.20458e-10
-2.03726e-09
-2.42912e-09
-1.02747e-09
1.64821e-10
-2.36002e-10
-1.66719e-09
-2.95162e-09
-3.84392e-09
-4.79371e-09
-2.0209e-09
6.40241e-09
1.31163e-08
5.88402e-09
-8.26976e-09
-3.89039e-09
8.76662e-09
8.30277e-09
5.20954e-09
-9.35203e-10
-5.8958e-09
-7.33772e-09
-6.87712e-09
-5.62318e-09
-3.6453e-09
-1.73317e-09
-1.69778e-09
-4.17277e-09
-4.95115e-09
-2.65493e-09
-1.60353e-09
-2.22693e-09
1.30073e-10
8.10853e-10
-4.74305e-10
-2.53765e-10
-1.15055e-10
-3.6489e-10
-2.0018e-10
5.17283e-10
1.01518e-09
-4.08086e-10
-8.3096e-10
-8.25707e-10
-3.5768e-10
-3.65411e-10
-4.95707e-10
-1.40523e-10
-1.02807e-10
-1.36869e-09
-1.10079e-09
1.42928e-09
4.75268e-09
4.39742e-09
-4.72802e-10
1.06445e-09
6.60473e-09
3.41279e-09
2.93821e-09
1.481e-09
-8.88257e-11
-2.6108e-10
-9.6904e-11
-2.74186e-10
-6.5526e-11
7.19154e-10
1.08077e-09
-3.30034e-10
-2.17741e-09
-2.06389e-09
-1.42309e-09
-1.8616e-09
-1.6445e-09
-7.00665e-11
2.65375e-10
-8.05165e-10
-1.09254e-10
-1.06176e-10
-8.18589e-11
2.03966e-10
1.06997e-09
1.03733e-09
-4.17547e-10
4.1722e-10
-1.6759e-10
-5.76993e-10
-3.99085e-10
3.75382e-10
5.5973e-11
-1.11843e-09
-8.62945e-10
-4.64342e-11
2.22037e-09
2.49332e-09
1.36361e-09
6.82184e-09
8.41928e-09
2.76987e-09
2.66126e-09
1.43261e-09
2.55475e-10
-5.80419e-10
-1.38405e-09
-1.81728e-09
-1.91104e-09
-1.24554e-09
-5.19581e-11
6.46301e-10
-4.60535e-10
-5.51851e-10
-9.26586e-11
1.91906e-10
-1.70211e-09
-1.7487e-09
8.49057e-10
-3.42306e-10
-2.70083e-10
1.35217e-10
3.32977e-10
3.92564e-10
3.62195e-10
1.92828e-09
5.61554e-10
-5.94258e-10
7.34449e-10
-4.71649e-11
-1.51421e-10
1.38928e-10
-5.33051e-10
-9.64619e-10
-2.94316e-10
-2.10972e-10
2.45346e-09
4.77629e-09
8.68779e-10
8.12504e-09
9.38338e-09
9.83794e-10
8.3039e-10
4.41479e-10
2.17567e-10
1.66858e-11
-7.38757e-10
-1.8602e-09
-3.13323e-09
-3.8118e-09
-2.90604e-09
-7.68934e-10
2.56672e-10
-5.67531e-10
1.29053e-10
1.13968e-09
6.24571e-10
-5.79631e-10
-1.02178e-09
1.79338e-10
-3.45541e-10
7.96035e-11
4.72716e-10
6.77432e-10
2.17186e-10
2.02088e-10
2.81094e-09
-1.17304e-09
-1.11827e-09
7.17735e-10
2.96939e-10
-1.49319e-10
-7.2797e-10
-6.7734e-10
-1.71488e-11
5.05745e-11
1.869e-09
5.86123e-09
5.4711e-10
5.62229e-09
7.63234e-09
-1.5156e-09
-1.24344e-09
-1.34654e-10
1.67556e-10
1.3387e-10
-9.22719e-11
-4.05555e-10
-1.13273e-09
-2.33145e-09
-2.95339e-09
-2.15333e-09
-5.36605e-10
-2.65015e-10
-2.90548e-10
4.93766e-10
1.53425e-09
1.01215e-10
-1.53718e-09
-1.1022e-09
-7.38336e-10
-4.30491e-10
-3.41948e-11
6.18749e-10
1.11546e-09
1.54888e-10
5.02967e-10
1.64732e-09
-4.06044e-09
-2.1029e-09
6.11146e-11
-5.59176e-10
-1.34734e-09
-7.7548e-10
1.48681e-10
4.6128e-10
1.60919e-09
4.54093e-09
5.52314e-10
2.31145e-09
5.07154e-09
-2.44644e-09
-1.88848e-09
-2.76744e-11
3.0416e-10
1.57806e-10
-3.06682e-11
-8.5825e-11
-1.7548e-10
-4.84448e-10
-6.02614e-10
-4.60071e-10
-5.56841e-10
-4.9022e-10
-4.67139e-10
-2.75261e-10
-8.40738e-11
-2.53313e-09
-1.26559e-10
-2.93179e-10
-8.58947e-10
-1.13345e-09
-4.57985e-10
1.04414e-10
2.24026e-10
1.05076e-09
-1.47931e-10
-1.14135e-10
-2.14032e-09
-4.86775e-09
-1.32898e-09
-1.25371e-09
-1.93777e-09
-2.66442e-10
4.22336e-10
7.36528e-10
1.76802e-09
2.26215e-09
3.08453e-10
7.15539e-10
3.34742e-09
-1.89508e-09
-1.0266e-09
2.96727e-10
3.05876e-10
1.91875e-10
-2.419e-12
-2.70251e-11
5.52979e-11
-1.42668e-11
1.91319e-10
8.52071e-10
7.94693e-10
-6.49933e-11
-4.73877e-10
-6.61133e-10
-1.70328e-09
-5.65895e-09
4.32495e-13
3.0497e-09
-4.0442e-10
-1.27625e-09
-1.2101e-12
6.34808e-10
-3.98827e-10
-8.31298e-10
4.4723e-10
-7.41828e-10
-2.59463e-09
-3.56673e-09
-1.67119e-09
-1.253e-09
-6.63081e-10
4.5784e-10
2.26342e-11
9.23484e-10
1.65376e-09
5.72655e-10
-1.70694e-10
9.71249e-10
3.12048e-09
8.29668e-10
5.93595e-10
2.66986e-10
2.42512e-10
1.07476e-10
-1.56816e-10
-7.43519e-11
2.48976e-10
1.94838e-10
2.35156e-10
9.89342e-10
1.23962e-09
5.38875e-10
7.91578e-12
-3.77494e-10
-2.00691e-09
-6.04161e-09
-1.6172e-09
4.91554e-09
2.7899e-10
-1.04166e-09
4.74828e-10
1.14565e-09
1.13273e-10
-1.19831e-09
-9.20122e-10
4.36574e-10
-1.83015e-09
-4.45765e-09
-2.7033e-09
-4.78205e-10
3.52546e-11
-3.08892e-10
-1.23871e-10
1.0233e-09
1.18416e-09
-1.30538e-10
-3.98223e-10
1.45192e-09
3.41291e-09
2.30008e-09
6.60471e-10
3.61467e-10
2.30151e-10
1.97425e-12
-2.18019e-10
-1.17943e-10
2.48612e-10
2.80404e-10
1.13969e-10
7.64471e-10
1.25474e-09
5.91938e-10
1.98203e-10
2.01672e-10
-8.42692e-10
-2.63575e-09
-2.11917e-09
3.2214e-09
5.31709e-10
-1.0679e-09
1.72525e-10
8.34794e-10
1.57009e-10
-7.75006e-10
-1.38096e-09
-1.92282e-10
-3.1132e-10
-4.55578e-09
-3.96318e-09
-2.60316e-10
-9.81812e-11
-2.42788e-10
2.37462e-10
5.86837e-10
8.10911e-10
-1.49237e-10
-9.85333e-11
1.84946e-09
2.34699e-09
9.76001e-10
3.69136e-10
7.79127e-11
1.05477e-10
-6.61042e-11
-1.16079e-10
-2.36629e-10
-4.96712e-10
-2.51933e-10
-8.63232e-11
3.46466e-10
9.22888e-10
5.2811e-10
7.11463e-11
1.58448e-10
1.32645e-10
-5.72177e-11
-3.57592e-10
8.17142e-10
1.33108e-10
-4.98232e-10
1.36676e-11
4.38266e-10
1.53514e-10
-4.69866e-10
-1.37565e-09
-1.10907e-09
-1.13213e-10
-3.54845e-09
-4.5384e-09
-4.38836e-10
6.94565e-10
7.10855e-10
1.97816e-10
1.6503e-10
9.30519e-10
4.24325e-11
-8.54994e-11
1.44711e-09
1.43169e-09
4.76358e-10
1.40352e-11
-7.86952e-11
-6.26953e-10
-4.87931e-10
1.88877e-10
-1.06768e-10
-1.05338e-09
-6.90143e-10
2.27955e-11
1.24133e-10
6.57768e-10
6.16233e-10
1.00562e-10
-1.44525e-11
7.34349e-11
1.76229e-10
-1.63617e-10
-6.11079e-10
-2.42647e-10
3.81894e-11
-1.89045e-10
-2.42367e-10
-6.10062e-12
-3.11017e-10
-1.61216e-09
-1.7615e-09
-1.92685e-10
-2.478e-09
-4.61299e-09
-8.53581e-10
1.31686e-09
8.80642e-10
-1.28943e-11
2.01343e-10
9.62519e-10
4.11152e-11
-3.71602e-10
6.67418e-10
8.56287e-10
4.13164e-10
-4.92404e-10
-1.6587e-09
-9.35324e-10
5.08419e-10
7.15668e-10
6.06734e-11
-3.26931e-10
4.04096e-10
1.31484e-09
5.4763e-10
3.45903e-10
7.8247e-10
4.18543e-10
-1.89287e-11
-9.28414e-11
-2.15935e-11
-3.28756e-10
-5.44608e-10
-3.28953e-11
1.09625e-10
-1.51789e-10
-2.57177e-10
-4.69026e-11
1.74049e-11
-1.06223e-09
-1.74684e-09
-1.81285e-10
-1.42754e-09
-3.95376e-09
-1.40183e-09
6.27915e-10
5.0172e-10
3.46534e-11
1.66316e-10
7.62525e-10
-6.71551e-12
-7.46345e-10
5.56522e-10
1.17859e-09
-2.6163e-10
-2.05458e-09
-1.09601e-09
1.09009e-09
1.43643e-09
6.52679e-10
1.16936e-12
4.40204e-11
9.99171e-10
2.07431e-09
1.5497e-09
2.76034e-10
4.06145e-10
5.31008e-10
9.21194e-11
-1.35284e-10
-2.19299e-10
-4.19262e-10
-4.59997e-10
-7.40592e-11
9.93681e-11
-4.45311e-11
-8.56818e-11
-3.08532e-12
6.68768e-11
-3.07902e-10
-1.03246e-09
-1.41527e-10
-6.78663e-10
-3.19377e-09
-1.67458e-09
4.81581e-10
3.18528e-10
-2.50869e-10
1.87866e-10
8.42217e-10
5.09595e-10
8.6341e-12
9.05161e-10
1.46236e-09
1.40389e-10
-4.39393e-10
1.65011e-09
2.95833e-09
1.5847e-09
4.50858e-10
-8.19103e-11
-5.29784e-10
3.35068e-10
1.23232e-09
1.53831e-09
6.83371e-10
1.9284e-10
3.85263e-10
1.81525e-10
-1.67946e-10
-3.9765e-10
-5.52055e-10
-3.38564e-10
1.56821e-10
2.02493e-10
-5.08182e-11
8.16583e-11
2.22635e-10
1.35283e-10
-1.67839e-11
-2.49501e-10
2.49276e-11
-3.23038e-10
-2.13135e-09
-1.219e-09
3.65142e-10
-3.1715e-12
-3.63062e-10
-5.02609e-12
3.7209e-10
4.79808e-10
4.95662e-10
8.52858e-10
8.64068e-10
1.20972e-10
6.301e-10
2.12588e-09
1.54268e-09
1.62868e-10
8.37584e-11
-6.92999e-11
-8.50981e-10
-7.64523e-10
4.36608e-10
1.00443e-09
8.99979e-10
3.69284e-10
3.29232e-10
3.11882e-10
-5.49803e-11
-1.89372e-10
9.4402e-11
4.70868e-10
2.54677e-10
-2.172e-10
-1.96304e-11
3.96693e-10
4.22218e-10
1.88243e-10
2.65339e-10
3.69807e-10
3.01503e-10
-1.7021e-10
-8.06607e-10
-8.60059e-11
4.67903e-10
9.01061e-11
-2.24404e-10
-1.49028e-10
4.17154e-12
-8.12848e-12
-5.251e-11
-4.08925e-11
4.65364e-11
6.99576e-10
1.2259e-09
3.53654e-10
-1.18773e-10
5.3375e-10
3.66746e-10
-6.30916e-10
-9.86844e-10
-9.97346e-10
-4.68347e-10
8.96125e-10
1.01899e-09
6.70843e-10
5.40166e-10
3.69781e-10
-1.40586e-11
2.48738e-10
3.70661e-10
3.99908e-10
1.04848e-10
-1.59555e-11
6.55373e-11
2.90128e-10
7.93484e-10
7.48867e-10
4.28197e-10
6.93314e-10
4.64529e-10
-1.63697e-10
1.73581e-11
5.39877e-10
4.61215e-10
1.03734e-10
-1.40124e-11
2.34693e-11
3.04257e-11
-5.96963e-11
-8.02149e-11
1.68754e-10
4.14889e-10
3.28159e-10
-4.07483e-11
-1.06376e-10
3.68884e-11
-1.93209e-12
-5.39636e-11
-6.78839e-10
-2.08225e-09
-1.62777e-09
-2.39696e-10
5.21328e-10
1.1248e-09
6.43025e-10
1.89713e-10
2.07009e-10
2.53312e-10
2.75582e-10
-8.7112e-12
-1.88957e-10
-9.34135e-12
1.91724e-10
5.29265e-11
1.44716e-10
9.317e-10
1.35236e-09
4.90076e-10
2.9531e-10
8.61544e-10
2.89476e-10
-6.07538e-11
2.94651e-10
2.63026e-10
-1.5797e-11
-1.47475e-10
-2.8676e-10
-3.35166e-10
-1.56909e-10
-4.55683e-11
-6.65109e-11
-1.28759e-10
-2.34673e-10
-2.59666e-10
-2.33116e-10
-3.02566e-10
-3.04987e-10
-1.05998e-10
-3.79487e-10
-1.75339e-09
-2.58945e-09
-9.69711e-10
8.85656e-10
9.32844e-10
9.15495e-11
-2.95931e-10
1.24005e-10
4.15578e-10
1.26763e-10
-1.23523e-10
-3.41799e-10
-1.81926e-10
9.36613e-11
1.63296e-10
3.90448e-10
1.02898e-09
1.34939e-09
5.6515e-10
1.15867e-10
1.04956e-09
8.50024e-10
-1.96891e-10
-2.65667e-10
-2.75065e-10
-3.91701e-10
-1.95281e-10
-1.63033e-10
-2.81349e-10
-1.27684e-10
3.76593e-11
-1.42114e-10
-3.89114e-10
-3.55188e-10
-1.63657e-10
-5.61884e-11
-1.03935e-11
5.68115e-11
8.58812e-11
-2.69544e-10
-1.04461e-09
-1.01002e-09
-5.16741e-10
-4.76769e-10
-3.79793e-11
5.78494e-11
-1.52388e-10
-1.15483e-10
9.09187e-11
1.67257e-10
1.48564e-10
-6.39259e-11
-1.95816e-10
-2.52474e-11
2.06962e-10
4.48314e-10
6.94841e-10
5.53946e-10
3.3193e-10
5.73427e-10
9.19466e-10
4.95863e-10
-8.08483e-11
3.66325e-11
-3.68913e-11
-3.64625e-10
-2.96969e-10
-1.21071e-10
-1.29979e-10
-2.11411e-11
1.51517e-10
6.73525e-11
-6.33053e-11
1.92452e-11
1.6318e-10
2.13877e-10
1.50311e-10
9.22019e-11
1.20295e-10
-6.96867e-11
-4.86198e-10
-4.83085e-10
6.07026e-11
2.52258e-13
-4.94697e-10
-3.88567e-10
-5.63355e-11
8.39209e-11
1.13558e-10
1.68551e-10
6.2577e-11
-7.09296e-12
-1.79405e-11
-2.40148e-11
-1.33029e-11
7.88155e-11
3.30165e-10
4.33172e-10
7.43307e-11
5.0822e-11
4.58096e-10
3.28071e-10
-5.15462e-11
-8.4311e-11
-1.46625e-10
-3.15658e-10
-2.43838e-10
-7.13601e-11
-3.35814e-11
-2.78206e-11
2.08038e-11
-4.39196e-11
-2.14407e-10
-1.6519e-10
1.42189e-10
2.63156e-10
9.70333e-11
2.69668e-11
1.3541e-10
2.39765e-11
-2.72301e-10
-2.14248e-10
4.12345e-11
1.27478e-10
5.00507e-11
-4.44258e-11
-4.02239e-11
7.19898e-11
1.84334e-10
3.41673e-10
2.32784e-10
-2.54002e-11
-2.58211e-10
-2.27955e-10
-4.76179e-11
-9.69016e-11
-2.36507e-10
-1.1063e-10
2.65296e-11
-5.16665e-11
-1.58682e-10
-1.81739e-10
-1.13132e-10
1.94404e-11
1.22852e-10
1.99928e-10
3.08646e-10
3.8528e-10
3.218e-10
1.4378e-10
-6.90557e-11
-2.59137e-10
-2.82872e-10
-1.1916e-10
3.55917e-11
2.28612e-11
-7.25279e-11
-4.29627e-13
2.09999e-10
2.04702e-10
-8.11199e-11
-2.27345e-10
3.53965e-12
2.49254e-10
2.62246e-10
1.14447e-10
-8.60682e-12
4.97528e-11
2.42932e-10
2.15916e-10
1.29477e-09
2.58484e-09
3.0755e-09
-1.79242e-09
-7.40605e-09
-8.84737e-09
-6.66505e-09
-4.22035e-09
-3.75695e-09
-8.40798e-09
-1.84291e-08
-3.08351e-08
-4.32432e-08
-5.66166e-08
-7.22628e-08
-8.72874e-08
-8.99953e-08
-6.24644e-08
-1.61692e-10
4.23179e-08
2.17244e-08
4.20054e-09
-1.49448e-08
-3.53787e-08
-3.86272e-08
-3.16696e-08
-2.38783e-08
-1.77529e-08
-1.25273e-08
-9.49025e-09
-9.92956e-09
-1.40356e-08
-1.87375e-08
-1.14231e-08
7.0771e-09
3.55045e-09
-4.43253e-09
-1.31701e-10
3.85263e-10
6.11993e-10
7.37236e-10
3.87415e-10
-1.09583e-09
-2.63201e-09
-2.74028e-09
-1.11749e-09
1.12306e-09
2.78088e-09
2.78532e-09
1.37805e-09
-1.91952e-10
-1.41735e-09
-1.93735e-09
-1.76761e-09
-1.51512e-09
-1.59281e-09
-1.8005e-09
-7.95027e-10
3.19169e-09
8.02623e-09
3.80502e-09
-1.99377e-09
2.54802e-09
-7.65975e-09
-1.25509e-08
-7.12791e-09
-1.36809e-09
1.01037e-09
1.75748e-09
2.45019e-09
2.92706e-09
2.95777e-09
2.71353e-09
2.12572e-09
1.70221e-09
-6.70314e-10
-5.12491e-09
-4.3217e-09
-5.80089e-10
-1.85802e-10
1.79838e-10
-5.99186e-11
9.88559e-11
6.83778e-10
6.48737e-10
1.42986e-12
-4.98958e-10
-6.67425e-10
-1.07398e-09
-1.98161e-09
-2.63258e-09
-2.98069e-09
-3.7861e-09
-5.39468e-09
-7.59721e-09
-9.05366e-09
-7.31661e-09
-2.29907e-09
2.30428e-09
3.93171e-09
-9.87492e-10
-1.15686e-08
-3.9241e-09
3.60809e-09
1.17928e-09
-2.4229e-10
-3.15338e-09
-7.20165e-09
-9.96464e-09
-1.01489e-08
-8.55233e-09
-7.25561e-09
-7.41859e-09
-6.81947e-09
-3.02119e-09
2.84288e-10
-9.17191e-10
-4.67345e-09
-2.56281e-09
-5.77123e-10
8.56847e-11
-3.85404e-11
-7.2056e-11
4.80096e-10
6.73078e-10
1.90068e-10
-4.11994e-10
-7.06639e-10
-9.51306e-10
-1.40751e-09
-1.77645e-09
-1.88658e-09
-2.10977e-09
-2.61845e-09
-3.3921e-09
-3.62135e-09
-1.89955e-09
2.46877e-09
6.286e-09
6.88552e-09
2.34813e-09
-9.57661e-09
-8.02828e-09
3.66789e-09
2.88735e-09
1.12177e-09
-2.19487e-09
-6.24219e-09
-8.72848e-09
-8.79748e-09
-7.18659e-09
-5.4045e-09
-5.09422e-09
-6.02675e-09
-5.1369e-09
-1.37183e-09
6.39916e-11
-2.70357e-09
-3.28879e-09
-1.52793e-09
-1.01611e-10
2.39887e-10
-4.14684e-11
7.22371e-11
2.85371e-10
2.28437e-10
9.08204e-11
1.46502e-10
1.71388e-10
-4.81543e-11
-3.83506e-10
-4.12913e-10
-3.0058e-10
-4.33931e-10
-6.96604e-10
-3.67412e-10
6.47036e-10
1.60273e-09
2.01023e-09
3.01904e-09
3.75944e-09
-3.48713e-10
-2.62709e-09
3.7695e-09
1.40997e-09
2.05772e-10
3.15823e-10
-3.10182e-10
-1.18659e-09
-1.41854e-09
-8.51352e-10
-2.39092e-10
-2.59411e-10
-7.01521e-10
-6.69471e-10
-1.86591e-10
6.27013e-11
-1.23454e-09
-3.00847e-09
-1.84711e-09
-6.97489e-10
4.8413e-10
4.10442e-10
3.71739e-11
3.2486e-13
-4.62e-12
-9.081e-11
1.28569e-10
7.03239e-10
9.29022e-10
6.68807e-10
3.93598e-10
1.49923e-10
-4.27241e-10
-9.64613e-10
-4.79308e-10
5.24851e-10
5.96431e-10
2.50747e-10
2.0287e-09
4.06996e-09
2.16611e-09
3.59856e-09
5.47325e-09
1.46977e-09
1.92606e-10
-1.57901e-10
-3.17683e-10
-1.68646e-10
-1.20109e-10
-2.93786e-10
-7.90913e-10
-1.29367e-09
-1.07749e-09
2.07387e-10
1.48269e-09
1.03075e-09
-2.27831e-10
-1.49845e-09
-3.39135e-10
-1.10994e-09
1.37703e-10
8.39349e-10
2.88461e-10
-2.80937e-11
-8.99668e-11
-1.45896e-10
-1.49725e-10
-1.92255e-11
5.37349e-10
1.01557e-09
8.6646e-10
1.69911e-10
-9.86455e-10
-1.65656e-09
-6.92714e-10
3.57817e-10
2.42306e-10
3.09721e-10
3.08238e-09
6.94429e-09
2.94102e-09
5.16007e-09
6.87399e-09
8.27e-10
8.20133e-10
6.86024e-10
-2.35245e-10
-5.83006e-10
-7.03304e-10
-1.37208e-09
-2.92104e-09
-4.36879e-09
-3.80945e-09
-1.62763e-09
6.99048e-10
1.84121e-09
1.02583e-09
-5.59042e-10
4.58877e-10
-3.1029e-11
-3.60544e-10
8.48925e-10
5.59074e-10
3.2589e-11
-1.10998e-10
2.93242e-11
6.29988e-10
5.6754e-10
-2.31388e-10
5.99639e-10
1.5289e-09
3.45008e-10
-1.88635e-09
-2.15528e-09
-3.68931e-10
5.30596e-10
1.25713e-10
3.46894e-10
3.05322e-09
6.58711e-09
2.63434e-09
3.6294e-09
5.80348e-09
-5.09175e-10
-2.93109e-10
5.69842e-10
1.7648e-10
-7.59509e-12
-1.42494e-11
-5.0488e-10
-2.03569e-09
-4.39885e-09
-5.37364e-09
-3.4181e-09
-9.25178e-10
1.07758e-09
1.8847e-09
1.501e-10
2.80775e-11
5.73067e-10
9.03669e-11
7.90498e-10
5.24164e-10
-2.99703e-11
-2.09733e-10
-1.86841e-10
3.32162e-10
1.31787e-09
-2.95867e-11
-8.38499e-10
1.63511e-09
9.37014e-10
-2.46878e-09
-2.16926e-09
3.00748e-10
9.34784e-10
2.13403e-10
3.88053e-10
2.80319e-09
4.85091e-09
1.27049e-09
2.11777e-09