/*--------------------------------*- C++ -*----------------------------------*\
| =========                 |                                                 |
| \\      /  F ield         | OpenFOAM: The Open Source CFD Toolbox           |
|  \\    /   O peration     | Version:  5.0                                   |
|   \\  /    A nd           | Web:      www.OpenFOAM.org                      |
|    \\/     M anipulation  |                                                 |
\*---------------------------------------------------------------------------*/
FoamFile
{
    version     2.0;
    format      ascii;
    class       volScalarField;
    location    "50.4676134421789371";
    object      dissvv;
}
// * * * * * * * * * * * * * * * * * * * * * * * * * * * * * * * * * * * * * //

dimensions      [0 2 -3 0 0 0 0];

internalField   nonuniform List<scalar> 
60000
(
-1.33046e-09
-1.10555e-09
-2.37048e-10
-4.57436e-11
-2.22818e-10
-4.8372e-11
-2.26356e-12
-7.13184e-12
-5.79509e-12
-7.65072e-11
-4.36967e-10
-5.83502e-10
-1.03736e-10
-1.38455e-11
-1.06076e-11
-1.18536e-11
-2.26109e-10
-6.19854e-10
-3.17309e-10
-4.41702e-11
-1.44857e-10
-1.55834e-10
-2.57756e-11
-5.79804e-10
-4.11929e-09
-6.75741e-09
-3.56884e-09
-3.41038e-10
-3.61819e-10
-3.59091e-10
-5.58382e-11
-8.117e-11
-5.51457e-10
-1.08904e-09
-9.30672e-10
-3.56589e-11
-6.43138e-11
-7.97039e-13
-2.66332e-10
-8.78178e-10
-2.87127e-09
-2.8374e-09
-3.50832e-10
-2.98806e-10
-1.02099e-09
-3.06125e-10
-1.35445e-11
-7.70657e-11
-2.44117e-11
-1.04715e-10
-9.22856e-10
-2.16332e-09
-9.87892e-10
-1.3744e-10
-8.98262e-10
-2.50307e-09
-4.42019e-09
-4.67341e-09
-3.15931e-10
-6.76225e-09
-1.80151e-08
-1.06759e-08
-4.23679e-10
-1.00642e-08
-3.9717e-08
-5.74047e-08
-3.51928e-08
-6.24044e-09
-8.43402e-10
-2.51831e-09
-3.95218e-10
-5.1902e-10
-2.26089e-10
-3.19542e-10
-1.84756e-09
-1.10765e-09
-2.95953e-10
-1.18073e-09
-2.57405e-10
-5.8607e-10
-3.51298e-09
-8.57467e-09
-2.32567e-09
-4.76696e-10
-2.36141e-09
-1.98749e-09
-4.79641e-10
-1.33219e-10
-1.6086e-11
-2.89091e-10
-4.97728e-10
-4.69407e-09
-6.75645e-09
-1.82142e-09
-3.46461e-09
-1.02388e-08
-1.70133e-08
-1.55892e-08
-2.72843e-09
-2.41582e-08
-7.03184e-08
-4.12154e-08
-2.25595e-09
-2.45295e-08
-6.16151e-08
-5.36709e-08
-1.65446e-08
-2.28642e-09
-1.24283e-08
-1.82033e-08
-7.94272e-09
-1.16981e-09
-2.8249e-09
-7.52902e-10
-1.05874e-09
-4.996e-09
-4.88381e-10
-6.32787e-09
-1.01914e-08
-1.80581e-09
-1.49075e-09
-9.07829e-09
-4.88296e-09
-7.07085e-10
-1.59967e-09
-2.0456e-09
-1.15469e-09
-2.87421e-11
-1.94788e-10
-1.24461e-09
-4.84348e-10
-4.00676e-09
-9.48042e-09
-4.87677e-09
-3.34743e-09
-7.56118e-09
-9.54031e-09
-5.94188e-09
-2.68506e-09
-1.5534e-08
-5.49922e-08
-3.93862e-08
-4.43958e-09
-2.19079e-08
-4.23282e-08
-2.64835e-08
-5.25594e-09
-5.05446e-09
-1.9806e-08
-2.83219e-08
-1.83376e-08
-4.57154e-09
-5.77422e-10
-6.85432e-10
-2.08537e-10
-3.61099e-09
-2.76256e-09
-1.70171e-09
-9.55239e-09
-5.34166e-09
-3.06457e-09
-5.30525e-09
-9.73364e-09
-2.77058e-09
-1.68011e-09
-1.79189e-09
-1.16354e-09
-4.0879e-10
-6.50265e-10
-2.37147e-09
-1.53433e-09
-3.1382e-09
-1.33116e-08
-1.33513e-08
-4.15153e-09
-8.40358e-09
-1.09468e-08
-5.48331e-09
-3.85803e-09
-7.30274e-09
-3.96833e-08
-4.65503e-08
-1.09882e-08
-1.72403e-08
-3.48674e-08
-2.41504e-08
-8.6074e-09
-1.92001e-09
-3.26245e-09
-1.387e-08
-1.96398e-08
-1.06006e-08
-1.63522e-09
-2.36035e-10
-5.30114e-10
-1.04728e-09
-3.59545e-09
-9.95979e-10
-6.59109e-09
-1.33046e-08
-1.64643e-08
-1.02548e-09
-6.66047e-09
-6.13175e-09
-3.12243e-09
-2.59614e-09
-1.44042e-09
-6.27133e-10
-1.68782e-09
-5.38799e-09
-4.75719e-09
-1.87049e-09
-1.078e-08
-1.95813e-08
-9.24852e-09
-9.34205e-09
-1.50041e-08
-7.45389e-09
-4.92418e-09
-6.63648e-09
-1.85501e-08
-3.92077e-08
-1.75091e-08
-1.31422e-08
-1.99222e-08
-1.26596e-08
-5.92202e-09
-2.67809e-09
-6.97692e-10
-1.68871e-09
-8.54381e-09
-1.31073e-08
-8.25426e-09
-2.10679e-09
-4.68271e-10
-1.09051e-09
-2.07779e-09
-2.67898e-09
-1.18244e-09
-1.29735e-08
-1.80122e-08
-1.2538e-08
-1.79856e-10
-3.9875e-09
-4.86348e-09
-3.96843e-09
-2.34981e-09
-8.64825e-11
-2.30028e-09
-9.33214e-09
-1.03504e-08
-3.09672e-09
-6.89842e-09
-1.55764e-08
-1.348e-08
-1.11403e-08
-1.56831e-08
-9.87071e-09
-5.69292e-09
-8.82395e-09
-9.11174e-09
-2.57005e-08
-2.184e-08
-1.14603e-08
-9.96082e-09
-8.36664e-09
-4.66695e-09
-2.20259e-09
-1.09938e-09
-1.24603e-09
-1.90485e-09
-3.83006e-09
-8.44668e-09
-1.02015e-08
-4.62991e-09
-1.70643e-09
-2.19501e-09
-2.79752e-09
-1.78372e-09
-1.98618e-09
-5.74233e-09
-1.75937e-08
-5.96599e-09
-2.30038e-09
-5.06145e-09
-4.43745e-09
-2.36123e-09
-5.2236e-10
-2.7242e-09
-1.1576e-08
-1.64542e-08
-7.37946e-09
-4.21611e-09
-1.11403e-08
-1.78247e-08
-1.68665e-08
-1.51875e-08
-1.25874e-08
-7.41443e-09
-1.07543e-08
-9.95181e-09
-2.29527e-08
-2.76201e-08
-1.26254e-08
-8.79372e-09
-6.79359e-09
-3.98075e-09
-2.02522e-09
-7.65855e-10
-1.82315e-09
-3.78735e-09
-2.34042e-09
-7.77536e-10
-5.01833e-09
-9.37732e-09
-6.0452e-09
-3.27884e-09
-2.56157e-09
-2.81107e-09
-7.29485e-10
-2.90779e-10
-7.98918e-09
-8.89319e-09
-4.6785e-09
-7.2737e-09
-6.28851e-09
-2.13536e-09
-2.39301e-10
-3.47472e-09
-1.17627e-08
-1.92862e-08
-1.11672e-08
-9.54622e-10
-7.31138e-09
-2.21284e-08
-2.09596e-08
-1.29173e-08
-1.05456e-08
-9.12643e-09
-9.17765e-09
-1.2014e-08
-2.79869e-08
-3.86434e-08
-1.72159e-08
-6.01069e-09
-3.19956e-09
-4.80556e-09
-2.84736e-09
-6.59551e-10
-1.38557e-09
-3.58854e-09
-4.09991e-09
-1.72012e-09
-7.47806e-11
-2.6675e-09
-6.44537e-09
-6.0474e-09
-3.60593e-09
-2.84161e-09
-2.73166e-09
-2.17256e-09
-1.40579e-09
-6.73849e-09
-7.67112e-09
-1.02909e-08
-8.60271e-09
-2.5547e-09
-9.01152e-11
-3.33617e-09
-8.25108e-09
-1.52556e-08
-9.88979e-09
-4.65799e-10
-8.22111e-09
-2.04276e-08
-1.55425e-08
-6.57011e-09
-6.10628e-09
-8.78979e-09
-6.63737e-09
-7.39538e-09
-3.1784e-08
-5.33112e-08
-2.38741e-08
-2.09214e-09
-3.10245e-09
-7.35684e-09
-3.66489e-09
-6.44125e-10
-1.23132e-09
-2.69527e-09
-2.98476e-09
-2.13316e-09
-8.6747e-10
-3.40622e-10
-1.46723e-09
-3.36118e-09
-3.48189e-09
-2.81881e-09
-3.40487e-09
-4.48119e-09
-1.20834e-09
-3.24568e-09
-8.82196e-09
-1.18426e-08
-9.16625e-09
-2.38932e-09
-1.56277e-10
-3.14702e-09
-5.90269e-09
-7.71556e-09
-5.54036e-09
-3.74828e-10
-9.9596e-09
-1.27592e-08
-7.43183e-09
-3.24133e-09
-4.72733e-09
-6.94751e-09
-6.87997e-09
-3.23218e-09
-2.41743e-08
-5.82756e-08
-2.80194e-08
-1.27814e-09
-5.14781e-09
-8.68952e-09
-3.29768e-09
-5.47408e-10
-1.37067e-09
-2.57791e-09
-2.40008e-09
-1.25615e-09
-7.28541e-10
-4.98066e-10
-5.01246e-10
-6.2523e-10
-7.5898e-10
-1.14051e-09
-2.7263e-09
-4.34305e-09
-3.4797e-09
-8.83905e-10
-6.60172e-09
-1.00317e-08
-6.9674e-09
-1.87399e-09
-9.93819e-11
-1.66128e-09
-3.71457e-09
-4.81086e-09
-3.00115e-09
-7.31594e-10
-8.52867e-09
-8.55048e-09
-5.72992e-09
-4.34336e-09
-4.73265e-09
-6.81925e-09
-9.9488e-09
-6.89314e-09
-1.42514e-08
-4.81187e-08
-3.1123e-08
-4.24563e-09
-7.71249e-09
-8.03644e-09
-2.34935e-09
-5.64744e-10
-1.50195e-09
-2.65553e-09
-2.50522e-09
-1.21766e-09
-6.75279e-10
-6.33694e-10
-4.80499e-10
-3.77647e-10
-1.92659e-10
-9.09941e-12
-9.50869e-10
-1.95261e-09
-3.735e-09
-2.72124e-09
-5.52496e-09
-6.4185e-09
-3.67225e-09
-1.40547e-09
-3.75648e-10
-5.14075e-10
-2.1989e-09
-4.58048e-09
-3.92784e-09
-1.37489e-09
-8.88156e-09
-1.02365e-08
-7.82702e-09
-5.91776e-09
-3.17793e-09
-6.32645e-09
-1.30409e-08
-1.33182e-08
-1.26283e-08
-3.05732e-08
-2.78415e-08
-1.02509e-08
-8.74726e-09
-5.40005e-09
-1.44917e-09
-6.66368e-10
-1.29496e-09
-1.91675e-09
-1.98077e-09
-1.38812e-09
-9.45699e-10
-1.00752e-09
-7.17127e-10
-5.27848e-10
-4.99022e-10
-4.40976e-10
-1.35374e-10
-3.8443e-10
-1.1898e-09
-4.05766e-09
-6.21712e-09
-4.30015e-09
-1.20091e-09
-4.27798e-10
-6.40658e-10
-7.31233e-10
-1.64679e-09
-4.5123e-09
-6.09214e-09
-4.11398e-09
-1.17119e-08
-1.46087e-08
-9.70663e-09
-4.13374e-09
-1.64257e-09
-3.54669e-09
-6.73328e-09
-1.09146e-08
-1.3914e-08
-1.5104e-08
-1.38639e-08
-9.9823e-09
-5.56606e-09
-2.46224e-09
-1.51151e-09
-1.06735e-09
-8.44807e-10
-5.32092e-10
-4.18032e-10
-8.53499e-10
-1.02961e-09
-1.06513e-09
-9.09216e-10
-6.90655e-10
-5.80588e-10
-6.39812e-10
-6.37822e-10
-4.83204e-10
-7.06468e-10
-6.06758e-09
-7.26976e-09
-2.6242e-09
-1.50175e-10
-6.96046e-10
-6.51941e-10
-1.20873e-10
-8.83169e-10
-4.26854e-09
-6.3941e-09
-3.81505e-09
-1.09073e-08
-1.53183e-08
-7.31794e-09
-2.87804e-09
-1.70509e-09
-2.299e-09
-4.51158e-09
-3.22361e-09
-4.39004e-09
-7.12577e-09
-5.77325e-09
-3.23483e-09
-8.67118e-10
-2.29342e-09
-2.96042e-09
-1.48164e-09
-3.26034e-10
-1.30392e-10
-1.84884e-10
-5.40827e-10
-1.08329e-09
-8.81154e-10
-1.17956e-09
-9.10603e-10
-6.02133e-10
-8.59181e-10
-1.30026e-09
-1.09807e-09
-1.07248e-09
-7.57877e-09
-8.0825e-09
-2.31023e-09
-7.04444e-11
-9.59927e-10
-1.26995e-09
-8.90128e-10
-2.33389e-10
-2.31375e-09
-7.42324e-09
-2.9391e-09
-3.73598e-09
-1.07964e-08
-6.0399e-09
-2.07569e-09
-7.21584e-10
-4.51913e-09
-6.05866e-09
-2.49099e-09
-3.01789e-10
-3.02528e-09
-3.58348e-09
-1.1608e-09
-1.62595e-09
-4.23594e-09
-4.23545e-09
-1.75125e-09
-1.47783e-10
-3.27288e-10
-9.1306e-10
-1.02183e-09
-1.07777e-09
-7.44764e-10
-1.00358e-09
-2.04165e-09
-1.07854e-09
-7.5729e-10
-2.0013e-09
-1.65839e-09
-1.14386e-09
-6.01362e-09
-7.64214e-09
-2.54656e-09
-1.33337e-10
-1.25094e-09
-1.38346e-09
-1.60603e-09
-1.62794e-09
-9.46817e-10
-5.18134e-09
-5.98008e-09
-4.55538e-09
-1.05625e-08
-5.59511e-09
-6.10273e-10
-3.52577e-09
-7.11816e-09
-5.6396e-09
-1.48896e-09
-3.01693e-10
-2.94988e-09
-4.51956e-09
-2.44966e-09
-1.02486e-09
-3.39515e-09
-3.21248e-09
-9.92912e-10
-1.75089e-09
-2.19448e-09
-2.16025e-09
-2.54161e-09
-1.48878e-09
-6.40841e-10
-2.58272e-10
-1.41555e-09
-2.49477e-09
-1.43158e-09
-1.74145e-09
-1.18447e-09
-5.49337e-10
-3.8999e-09
-6.6979e-09
-2.60818e-09
-4.86388e-10
-1.70363e-09
-1.27473e-09
-1.84827e-09
-2.77808e-09
-1.31615e-09
-1.97551e-09
-6.58072e-09
-9.36249e-09
-7.27824e-09
-2.79084e-09
-3.03443e-09
-5.00346e-09
-4.93697e-09
-3.02468e-09
-1.13515e-09
-1.75922e-09
-4.37892e-09
-3.66141e-09
-1.52455e-09
-2.53805e-09
-2.48078e-09
-9.46493e-11
-2.08273e-09
-2.97736e-09
-1.73419e-09
-2.84549e-09
-7.66899e-09
-4.92357e-09
-4.08826e-10
-8.64623e-10
-1.12472e-09
-1.49942e-09
-2.74554e-09
-2.27444e-09
-1.067e-09
-2.6129e-10
-2.65687e-09
-6.08135e-09
-4.45451e-09
-2.63526e-09
-3.76245e-09
-3.33546e-09
-2.81934e-09
-4.12674e-09
-2.8702e-09
-2.44293e-10
-3.4487e-09
-4.64753e-09
-1.42818e-09
-2.06801e-09
-3.29156e-09
-1.70094e-09
-1.7909e-09
-2.40513e-09
-1.81289e-09
-2.00568e-09
-2.72209e-09
-2.12161e-09
-1.90124e-09
-1.46895e-09
-8.71635e-11
-1.07324e-09
-1.15996e-09
-9.51244e-10
-5.19893e-10
-1.86686e-09
-9.59377e-09
-1.28001e-08
-3.94876e-09
-4.43072e-10
-2.11567e-09
-1.60696e-09
-5.99305e-10
-1.48999e-09
-2.43355e-10
-8.75459e-10
-1.08374e-09
-2.22274e-09
-2.81449e-09
-1.73622e-09
-3.34504e-09
-5.27505e-09
-3.74065e-09
-3.94038e-09
-4.3302e-09
-2.19406e-09
-1.74123e-09
-2.13891e-09
-6.40143e-10
-5.38013e-10
-9.90099e-10
-1.47681e-09
-2.87213e-09
-3.28882e-09
-1.89975e-09
-1.5332e-09
-2.5905e-09
-2.4852e-09
-1.24189e-09
-2.24925e-10
-3.13045e-10
-5.64402e-10
-7.63933e-10
-5.92563e-10
-2.90195e-10
-1.09858e-09
-4.35046e-09
-8.78113e-09
-6.03656e-09
-9.56472e-10
-2.23409e-09
-4.01498e-09
-2.3771e-09
-2.93588e-10
-9.54597e-10
-6.94674e-11
-9.27868e-10
-2.77434e-09
-1.72973e-09
-1.78421e-10
-2.71654e-09
-5.82683e-09
-4.12958e-09
-1.97538e-09
-3.71509e-09
-3.30365e-09
-2.39277e-09
-3.06885e-09
-2.39273e-09
-8.80101e-10
-2.93985e-10
-8.03395e-10
-2.26066e-09
-3.63977e-09
-2.68281e-09
-4.89806e-10
-5.61065e-10
-1.82554e-09
-1.4888e-09
-1.05258e-09
-8.84181e-10
-4.87085e-10
-4.85516e-10
-7.85894e-10
-5.92065e-10
-1.37664e-09
-2.8023e-09
-3.91616e-09
-3.13394e-09
-1.29231e-09
-2.80909e-09
-4.47047e-09
-3.40393e-09
-1.86046e-09
-1.87908e-09
-1.09565e-09
-6.93499e-10
-2.31451e-09
-2.44747e-09
-1.03241e-09
-1.87979e-09
-4.76268e-09
-4.22128e-09
-2.56365e-09
-7.955e-09
-8.33354e-09
-2.28757e-09
-3.92352e-09
-6.267e-09
-3.09375e-09
-1.50357e-09
-2.53957e-09
-3.8565e-09
-4.11344e-09
-2.91605e-09
-1.03072e-09
-9.33294e-10
-2.7284e-09
-3.5514e-09
-2.83515e-09
-2.19659e-09
-1.96693e-09
-1.87397e-09
-2.09597e-09
-1.18792e-09
-1.72822e-09
-6.04183e-09
-4.58471e-09
-1.33858e-09
-5.75009e-09
-5.92569e-09
-2.19802e-09
-9.2553e-10
-1.44465e-09
-7.92588e-10
-7.1627e-10
-3.72867e-10
-1.58751e-09
-2.641e-09
-1.69012e-09
-1.60144e-09
-3.39634e-09
-3.50731e-09
-1.50531e-09
-2.69429e-09
-3.31485e-09
-1.02998e-09
-1.19258e-09
-1.99674e-09
-1.48034e-09
-1.34803e-09
-1.74796e-09
-1.31023e-09
-4.31673e-10
-8.99298e-10
-2.56989e-09
-3.25285e-09
-2.29459e-09
-8.36014e-10
-1.46081e-10
-1.04438e-10
-1.2888e-10
-1.61555e-09
-3.39706e-09
-2.66842e-09
-1.12528e-09
-2.56886e-09
-4.40864e-09
-1.80572e-09
-1.09777e-09
-3.26889e-09
-2.20701e-09
-5.28567e-10
-3.20891e-10
-1.18324e-09
-1.14245e-09
-1.44376e-09
-1.13668e-09
-1.39704e-09
-3.46194e-09
-5.0063e-09
-4.22669e-09
-1.84506e-09
-5.61101e-10
-9.63121e-10
-9.13214e-10
-1.55432e-10
-1.27222e-10
-5.67675e-10
-5.50769e-10
-5.56777e-10
-6.15519e-10
-4.18847e-10
-3.64928e-10
-9.8772e-10
-1.64241e-09
-1.19628e-09
-6.22059e-10
-9.34769e-10
-8.84321e-10
-2.3294e-10
-3.752e-10
-1.24755e-09
-1.46748e-09
-9.45801e-10
-1.34134e-09
-2.68959e-09
-2.91276e-09
-2.71732e-09
-3.02307e-09
-2.18553e-09
-6.50984e-10
-3.93456e-10
-1.05436e-09
-1.70166e-09
-6.57333e-10
-4.92621e-10
-1.44258e-09
-2.59311e-09
-3.23381e-09
-3.62433e-09
-3.24865e-09
-1.68228e-09
-1.04261e-09
-1.85676e-09
-1.76654e-09
-7.79515e-10
-3.27844e-10
-8.10665e-10
-1.2344e-09
-1.143e-09
-1.09311e-09
-1.31895e-09
-1.46413e-09
-1.03277e-09
-2.61643e-10
-9.55464e-10
-3.04757e-09
-3.47361e-09
-2.02387e-09
-6.21839e-10
-8.2336e-11
-2.5771e-10
-9.79528e-10
-1.50576e-09
-9.89647e-10
-4.3653e-10
-7.29887e-10
-1.39809e-09
-1.13859e-09
-5.15502e-10
-1.42698e-09
-3.01282e-09
-2.9764e-09
-1.42449e-10
-3.09865e-10
-2.00183e-10
-3.50761e-12
-1.24195e-10
-1.82399e-10
-2.11187e-10
-2.56767e-10
-2.01021e-10
-1.60194e-10
-1.22304e-10
-2.94019e-10
-6.63395e-10
-8.59124e-10
-1.06019e-09
-1.57149e-09
-2.012e-09
-1.65406e-09
-6.75399e-10
-8.22027e-11
-6.61353e-11
-6.14577e-11
-2.64466e-11
-9.95735e-11
-8.85749e-11
-1.18613e-10
-3.58389e-10
-6.53698e-10
-1.78862e-10
-1.52876e-10
-9.39447e-10
-8.62814e-10
-2.73977e-10
-6.60184e-11
-1.90564e-10
-8.46114e-11
-6.9155e-10
-1.00973e-10
-5.92522e-11
-9.51621e-11
-1.38824e-09
-1.13432e-09
-1.41055e-10
-4.13829e-10
-2.21585e-09
-3.4311e-09
-1.66154e-09
-1.62608e-10
-3.8512e-10
-7.05984e-10
-4.96683e-10
-8.23797e-11
-1.61526e-09
-5.29658e-09
-1.15483e-08
-2.14952e-08
-3.10222e-08
-3.16566e-08
-1.66394e-08
-8.64822e-10
-5.78665e-09
-7.75333e-09
-1.59244e-09
-1.96584e-10
-3.92118e-09
-7.03551e-09
-2.63411e-09
-1.46818e-10
-1.43396e-10
-2.74291e-09
-9.94808e-09
-1.21033e-08
-7.05243e-09
-9.98711e-10
-1.00581e-09
-1.83009e-09
-3.54407e-11
-9.32677e-11
-2.86554e-10
-8.87422e-10
-5.19603e-09
-5.29939e-09
-7.78986e-10
-1.2426e-09
-6.23335e-09
-1.09915e-08
-5.87248e-09
-1.73105e-10
-4.97965e-09
-9.43772e-09
-6.12293e-09
-1.43155e-09
-1.25009e-09
-7.63005e-09
-1.73244e-08
-2.62976e-08
-3.07471e-08
-2.87839e-08
-1.28656e-08
-4.41685e-09
-4.40938e-08
-6.44211e-08
-1.8546e-08
-1.25402e-09
-1.51315e-08
-2.06277e-08
-7.16547e-09
-4.43484e-10
-7.91614e-10
-1.4548e-09
-5.6282e-09
-8.359e-09
-3.68443e-09
-4.65589e-10
-6.15307e-09
-2.09917e-08
-1.21752e-08
-8.46986e-11
-1.50654e-10
-1.1401e-09
-5.10998e-09
-8.71209e-09
-2.00567e-09
-1.3396e-09
-4.91533e-09
-7.1868e-09
-5.28613e-09
-4.34612e-10
-3.86054e-09
-1.16523e-08
-6.55412e-09
-2.63513e-09
-8.23856e-10
-3.81905e-09
-8.3352e-09
-9.22808e-09
-7.08062e-09
-5.58899e-09
-3.01089e-09
-1.0144e-08
-5.41492e-08
-8.03819e-08
-3.02301e-08
-2.42889e-09
-1.39154e-08
-1.59885e-08
-4.1225e-09
-1.0069e-09
-3.94059e-09
-3.55427e-09
-1.90051e-09
-9.33535e-10
-3.59043e-10
-1.9907e-09
-7.66882e-09
-1.72311e-08
-1.59283e-08
-2.47797e-10
-4.0867e-09
-3.60793e-10
-2.17406e-09
-1.04493e-08
-5.62543e-09
-8.53774e-10
-4.13374e-09
-5.15342e-09
-5.32476e-09
-2.02496e-09
-1.43524e-09
-1.13401e-08
-1.15889e-08
-6.55303e-09
-2.42899e-09
-2.55446e-09
-7.9031e-09
-1.00708e-08
-8.32701e-09
-8.81358e-09
-8.68268e-09
-6.19884e-09
-3.21459e-08
-7.61441e-08
-4.64212e-08
-5.89009e-09
-1.41975e-08
-1.90008e-08
-7.29422e-09
-2.29343e-10
-3.12182e-09
-5.64564e-09
-3.49157e-09
-1.04532e-09
-4.8476e-10
-1.23389e-09
-2.88917e-09
-9.37721e-09
-1.45096e-08
-2.71947e-09
-6.47626e-09
-6.22862e-09
-4.26821e-09
-7.70542e-09
-9.85297e-09
-1.44719e-09
-2.72172e-09
-3.05272e-09
-2.44795e-09
-2.27327e-09
-1.03711e-09
-4.95609e-09
-1.53421e-08
-1.25774e-08
-6.9264e-09
-3.47129e-09
-6.94177e-09
-9.57278e-09
-8.55056e-09
-9.75307e-09
-1.15409e-08
-9.10139e-09
-1.94372e-08
-5.80853e-08
-5.21065e-08
-1.18621e-08
-1.34149e-08
-1.70281e-08
-7.99695e-09
-1.34027e-09
-7.49953e-10
-3.51413e-09
-4.11189e-09
-2.54148e-09
-2.5656e-09
-3.42912e-09
-2.80461e-09
-4.42666e-09
-1.10319e-08
-8.20815e-09
-1.91403e-09
-1.58757e-08
-2.10072e-08
-3.10815e-09
-7.67301e-09
-2.9179e-09
-2.09112e-09
-1.81656e-09
-5.36655e-10
-1.10866e-09
-1.41122e-09
-7.74629e-10
-7.67238e-09
-1.44552e-08
-1.18605e-08
-7.4508e-09
-6.24628e-09
-6.72181e-09
-7.68685e-09
-8.14641e-09
-8.7431e-09
-9.77167e-09
-1.7434e-08
-3.94759e-08
-4.25423e-08
-1.72955e-08
-1.31949e-08
-1.3316e-08
-9.21199e-09
-3.80554e-09
-1.39109e-09
-2.8282e-09
-3.34602e-09
-2.24824e-09
-2.89351e-09
-6.01095e-09
-5.59937e-09
-2.99715e-09
-5.49911e-09
-1.12713e-08
-2.09806e-09
-1.0716e-08
-2.28122e-08
-1.25762e-08
-2.35191e-09
-3.13839e-09
-2.28691e-09
-2.47783e-09
-7.35842e-10
-3.09494e-09
-2.68409e-09
-8.20036e-10
-9.34865e-10
-7.49753e-09
-1.31988e-08
-1.11887e-08
-5.19808e-09
-4.46686e-09
-7.28785e-09
-7.26658e-09
-7.62208e-09
-1.19265e-08
-1.81823e-08
-2.5742e-08
-3.08942e-08
-2.18466e-08
-1.44818e-08
-1.28094e-08
-9.94581e-09
-4.86382e-09
-2.69194e-09
-3.72827e-09
-3.94707e-09
-2.4447e-09
-1.21031e-09
-2.31077e-09
-4.40187e-09
-3.18522e-09
-2.37275e-09
-6.24785e-09
-8.18883e-09
-3.76651e-10
-4.93712e-09
-2.12865e-08
-5.11575e-09
-3.66063e-09
-4.18653e-09
-4.79937e-09
-1.80308e-09
-4.04856e-09
-7.56869e-09
-2.18852e-09
-5.47213e-10
-2.56438e-09
-9.57797e-09
-1.05719e-08
-2.75807e-09
-2.49284e-09
-5.05341e-09
-4.49015e-09
-6.69396e-09
-1.61188e-08
-1.93073e-08
-1.5461e-08
-2.21613e-08
-2.64673e-08
-1.55823e-08
-1.04925e-08
-6.55917e-09
-3.59734e-09
-2.5034e-09
-3.32174e-09
-3.3964e-09
-2.29924e-09
-1.29142e-09
-6.62559e-10
-9.82764e-10
-1.44202e-09
-1.30157e-09
-2.24886e-09
-6.88542e-09
-3.84014e-09
-4.12585e-09
-9.80948e-09
-1.6958e-08
-1.36583e-08
-1.00426e-08
-5.57747e-09
-3.39136e-09
-2.97524e-09
-5.60205e-09
-6.90216e-09
-2.40937e-09
-4.84891e-09
-9.47818e-09
-7.34058e-09
-1.24093e-09
-3.15386e-09
-4.55167e-09
-2.5603e-09
-6.59737e-09
-1.94508e-08
-1.82347e-08
-6.49808e-09
-1.7706e-08
-3.21585e-08
-1.71817e-08
-6.52672e-09
-2.45484e-09
-2.19019e-09
-1.99121e-09
-2.84211e-09
-3.10648e-09
-1.91923e-09
-9.91941e-10
-8.4651e-10
-6.50689e-10
-4.16719e-10
-4.53012e-10
-6.35472e-10
-2.44859e-09
-7.80374e-09
-1.17725e-08
-1.82329e-09
-2.33726e-08
-3.11667e-08
-1.1663e-08
-2.19688e-09
-3.77185e-09
-4.00002e-09
-1.47413e-09
-2.08084e-09
-6.64564e-09
-8.46855e-09
-9.81493e-09
-4.8911e-09
-1.7494e-09
-6.3215e-09
-5.76855e-09
-1.44054e-09
-7.78557e-09
-1.75032e-08
-1.35666e-08
-1.0661e-09
-1.55296e-08
-3.60105e-08
-1.83941e-08
-3.11732e-09
-1.34714e-09
-2.11642e-09
-2.2881e-09
-3.19871e-09
-3.24074e-09
-2.00521e-09
-1.14183e-09
-1.37423e-09
-1.46972e-09
-7.60207e-10
-6.13338e-10
-6.79267e-10
-2.43634e-10
-4.95283e-09
-1.01656e-08
-5.71534e-09
-1.45946e-08
-2.62659e-08
-4.03285e-09
-1.57859e-09
-3.27818e-09
-3.69901e-09
-6.95099e-09
-2.54093e-09
-3.21121e-09
-1.4261e-08
-1.22858e-08
-3.60093e-09
-2.40174e-09
-7.17203e-09
-3.36703e-09
-1.17133e-09
-9.63921e-09
-1.30944e-08
-8.28847e-09
-8.34408e-10
-1.37508e-08
-3.3475e-08
-1.51749e-08
-1.63711e-09
-2.1236e-09
-2.92446e-09
-2.79964e-09
-3.01954e-09
-2.54419e-09
-1.9122e-09
-1.993e-09
-2.15442e-09
-2.56389e-09
-1.69332e-09
-7.46388e-10
-9.47869e-10
-5.57236e-10
-1.22405e-09
-2.21407e-09
-5.33128e-09
-1.08105e-08
-7.67053e-09
-2.05125e-10
-4.23061e-09
-3.27521e-09
-1.30001e-09
-6.26089e-09
-8.81243e-09
-1.00073e-09
-1.02663e-08
-1.56953e-08
-4.83147e-09
-2.49648e-09
-3.70212e-09
-6.39633e-10
-3.89768e-09
-1.00956e-08
-1.04252e-08
-7.41492e-09
-4.14706e-09
-1.36656e-08
-2.52287e-08
-1.04403e-08
-2.09343e-09
-2.72823e-09
-2.50117e-09
-2.58959e-09
-2.32275e-09
-1.36973e-09
-8.80595e-10
-2.44333e-09
-3.6522e-09
-3.41685e-09
-2.78617e-09
-1.41815e-09
-4.88338e-10
-4.39178e-10
-7.21624e-10
-9.01728e-10
-2.89644e-09
-1.14303e-08
-5.47726e-09
-1.84698e-09
-5.49567e-09
-3.36617e-09
-4.2791e-10
-1.17919e-09
-6.77675e-09
-5.67906e-09
-2.05252e-09
-1.3835e-08
-8.51511e-09
-2.87118e-09
-1.29243e-09
-3.22347e-09
-6.63936e-09
-6.61745e-09
-8.79514e-09
-9.33642e-09
-8.04812e-09
-1.22074e-08
-1.35329e-08
-6.79602e-09
-2.55704e-09
-1.31837e-09
-3.36845e-09
-3.87297e-09
-1.56711e-09
-1.08694e-09
-6.78537e-10
-1.09807e-09
-3.69292e-09
-4.26523e-09
-3.51838e-09
-2.11538e-09
-8.43323e-10
-9.45723e-11
-9.03065e-10
-9.8211e-10
-4.59396e-09
-8.30498e-09
-4.39092e-09
-2.25042e-09
-2.29626e-09
-1.4227e-09
-9.20992e-10
-5.32029e-10
-1.96085e-09
-5.67765e-09
-1.16085e-09
-8.34191e-09
-1.24204e-08
-4.80316e-09
-2.3029e-09
-5.22207e-09
-3.41933e-09
-3.08884e-09
-6.3941e-09
-6.71259e-09
-6.52588e-09
-8.00808e-09
-7.10313e-09
-3.96284e-09
-4.23259e-10
-2.99299e-09
-8.01916e-09
-5.43121e-09
-8.94727e-10
-2.11923e-09
-4.59431e-09
-2.12875e-09
-1.5061e-09
-3.05595e-09
-2.96243e-09
-2.76848e-09
-1.24527e-09
-4.88947e-10
-4.78445e-10
-3.08926e-10
-3.74965e-09
-6.59723e-09
-3.58101e-09
-9.17582e-10
-9.69654e-10
-7.67651e-10
-5.66884e-10
-1.27863e-09
-1.76818e-09
-3.46402e-09
-2.02023e-09
-6.34794e-09
-1.3225e-08
-6.01759e-09
-2.73665e-09
-5.93308e-09
-3.29809e-09
-1.95335e-09
-4.99017e-09
-3.62899e-09
-2.42867e-09
-5.38233e-09
-6.5338e-09
-3.36897e-09
-2.85509e-09
-5.65832e-09
-7.20768e-09
-4.51737e-09
-1.04289e-09
-6.9817e-10
-4.08739e-09
-6.13193e-09
-1.83243e-09
-7.69015e-10
-1.34353e-09
-2.10582e-09
-2.17397e-09
-1.14251e-09
-5.02182e-10
-2.39429e-10
-3.24974e-09
-5.36619e-09
-2.84619e-09
-6.89434e-10
-8.24228e-10
-7.82936e-10
-2.09611e-10
-9.48596e-10
-2.48529e-09
-2.7528e-09
-1.79311e-09
-6.36559e-09
-1.07812e-08
-4.04835e-09
-4.25952e-09
-8.78294e-09
-3.3386e-09
-1.77191e-09
-4.61009e-09
-3.31122e-09
-2.01695e-09
-5.13727e-09
-8.63609e-09
-6.09393e-09
-1.80446e-09
-6.47496e-09
-1.00444e-08
-3.75517e-09
-1.31685e-09
-4.72783e-09
-4.47901e-09
-6.67171e-09
-6.04523e-09
-7.53946e-10
-3.90246e-10
-8.0922e-10
-1.83028e-09
-1.81845e-09
-6.06033e-10
-3.95126e-10
-2.47122e-09
-4.06639e-09
-2.79886e-09
-1.04539e-09
-9.64706e-10
-1.26084e-09
-6.9881e-10
-1.11855e-09
-3.03239e-09
-3.02798e-09
-1.28893e-09
-7.04182e-09
-9.95312e-09
-2.91574e-09
-3.43582e-09
-5.81717e-09
-2.89214e-09
-2.6124e-09
-3.47183e-09
-2.6682e-09
-3.39148e-09
-6.49833e-09
-6.13147e-09
-1.55653e-09
-6.16819e-09
-8.68333e-09
-3.86063e-09
-9.31446e-10
-2.84095e-09
-4.47144e-09
-8.32754e-09
-9.04463e-09
-7.50114e-09
-3.11454e-09
-1.84807e-10
-9.17892e-10
-9.75147e-10
-9.98326e-10
-4.46729e-10
-3.83625e-10
-2.078e-09
-3.73576e-09
-2.73529e-09
-8.18888e-10
-1.97345e-09
-3.38895e-09
-3.31003e-09
-3.26424e-09
-4.33394e-09
-3.93065e-09
-1.97896e-09
-8.00197e-09
-1.08051e-08
-2.32177e-09
-8.75655e-10
-2.89604e-09
-2.47109e-09
-1.00755e-09
-7.34789e-10
-1.20584e-09
-1.75878e-09
-1.99103e-09
-6.68365e-10
-1.48301e-09
-2.8603e-09
-1.46155e-09
-2.14973e-09
-2.71503e-09
-4.39619e-10
-1.52863e-09
-8.69108e-09
-1.51783e-08
-1.06198e-08
-4.86674e-09
-1.39885e-09
-1.04439e-09
-2.50401e-09
-2.07143e-09
-6.16218e-10
-1.55546e-09
-2.2488e-09
-3.03361e-09
-2.06997e-09
-6.54104e-10
-4.11765e-10
-2.86155e-09
-7.25989e-09
-7.42896e-09
-3.59413e-09
-5.24697e-09
-5.5865e-09
-4.73403e-09
-4.91253e-09
-1.97411e-09
-3.39328e-10
-7.29545e-10
-1.14891e-09
-7.12502e-10
-7.5539e-11
-2.95222e-10
-4.93622e-10
-4.8943e-10
-7.01453e-10
-5.31877e-10
-8.26535e-10
-2.74236e-09
-2.55182e-09
-6.33367e-10
-1.97048e-10
-3.09865e-09
-7.87069e-09
-1.24433e-08
-1.31767e-08
-1.0154e-08
-5.03205e-09
-2.29486e-09
-2.19529e-09
-2.77946e-09
-2.38512e-09
-1.62975e-09
-9.44337e-10
-1.39137e-09
-2.48782e-09
-2.3937e-09
-7.75132e-10
-8.76282e-10
-6.12341e-09
-1.19583e-08
-5.58879e-09
-1.51009e-09
-9.8041e-09
-7.19961e-09
-2.08402e-09
-1.55629e-09
-6.89754e-10
-2.61831e-10
-1.81746e-09
-3.3085e-09
-2.23088e-09
-4.79641e-10
-6.70299e-10
-2.0297e-09
-2.46655e-09
-2.29714e-09
-2.38275e-09
-1.91033e-09
-1.06367e-09
-2.92747e-10
-4.52511e-10
-4.39994e-09
-8.1875e-09
-6.61831e-09
-3.92574e-09
-5.83315e-09
-6.15141e-09
-2.77432e-09
-2.32477e-09
-2.77511e-09
-2.33115e-09
-1.59532e-09
-7.06689e-10
-2.63666e-10
-1.33981e-09
-1.89752e-09
-8.89207e-10
-1.10122e-09
-5.52061e-09
-1.18674e-08
-7.52034e-09
-6.8224e-10
-9.16016e-09
-9.66165e-09
-2.38308e-09
-1.78017e-09
-2.20545e-09
-9.8622e-10
-9.81173e-10
-1.57808e-09
-1.28431e-09
-6.94957e-10
-7.7376e-10
-1.96933e-09
-2.96319e-09
-2.22142e-09
-7.23414e-10
-1.52143e-10
-3.75769e-10
-5.12699e-10
-6.67754e-10
-3.12706e-09
-7.66278e-09
-5.72366e-09
-7.2577e-10
-5.3439e-09
-8.01829e-09
-2.99542e-09
-7.01671e-10
-1.03355e-09
-1.62689e-09
-1.06193e-09
-1.20723e-09
-1.16227e-09
-1.05545e-09
-9.41227e-10
-9.86446e-10
-1.22446e-09
-2.22647e-09
-4.32494e-09
-4.59587e-09
-2.40005e-09
-4.41408e-09
-4.4986e-09
-1.81093e-09
-2.11486e-09
-2.81875e-09
-1.6111e-09
-3.34626e-10
-2.58886e-10
-7.99544e-10
-1.41276e-09
-2.13142e-09
-2.03363e-09
-8.46769e-10
-4.44143e-10
-1.38795e-09
-1.37928e-09
-5.27112e-10
-8.24901e-11
-2.67948e-10
-1.33849e-09
-3.6674e-09
-5.0326e-09
-2.17054e-09
-1.35831e-09
-5.63309e-09
-5.6747e-09
-2.18947e-09
-3.97379e-10
-5.62424e-10
-1.32402e-09
-1.27273e-09
-7.5457e-10
-1.689e-10
-8.15791e-10
-2.19157e-09
-2.2084e-09
-1.38714e-09
-1.00689e-09
-1.10147e-09
-2.26016e-09
-2.87479e-09
-1.28043e-09
-2.9759e-10
-2.18712e-09
-4.49538e-09
-3.80823e-09
-1.28154e-09
-1.45143e-10
-3.53814e-10
-7.14893e-10
-7.5532e-10
-5.1179e-10
-1.05722e-09
-1.81492e-09
-1.1944e-09
-2.77279e-10
-4.76989e-11
-2.13691e-10
-5.87568e-10
-1.09516e-09
-1.85598e-09
-2.15747e-09
-1.77506e-09
-1.83151e-09
-2.02893e-09
-1.33029e-09
-3.92587e-10
-4.33522e-10
-9.875e-10
-2.50741e-09
-1.05937e-09
-7.24882e-11
-6.31607e-10
-1.87979e-09
-2.25434e-09
-1.43155e-09
-5.1144e-10
-6.58387e-10
-1.70149e-09
-2.59732e-09
-2.71756e-09
-1.88737e-09
-8.36398e-10
-1.4744e-09
-3.16962e-09
-2.66361e-09
-8.40243e-10
-5.54416e-10
-1.03109e-09
-1.18412e-09
-1.85999e-09
-3.06458e-09
-2.86605e-09
-1.52376e-09
-6.30157e-10
-6.44214e-10
-3.60475e-10
-1.33441e-10
-9.27778e-10
-1.69808e-09
-1.17023e-09
-1.32942e-10
-6.99325e-10
-2.38165e-09
-2.66411e-09
-1.43027e-09
-3.29764e-10
-1.02656e-09
-2.58931e-09
-7.60662e-10
-1.08846e-09
-7.75299e-11
-1.46208e-10
-2.40993e-10
-1.02449e-10
-1.532e-11
-2.62335e-11
-3.83791e-11
-1.9129e-11
-2.30814e-10
-3.33196e-10
-2.29612e-10
-1.98314e-10
-5.07103e-10
-9.37279e-10
-1.31219e-09
-1.74089e-09
-2.0076e-09
-6.06391e-10
-3.35241e-10
-6.46317e-10
-1.50045e-10
-5.45815e-10
-1.63689e-09
-1.97953e-09
-1.26627e-09
-3.70102e-10
-5.34064e-11
-6.84245e-10
-1.26143e-09
-8.52773e-10
-2.01184e-10
-2.76589e-11
-2.85797e-11
-8.35625e-11
-4.97116e-10
-6.10871e-10
-4.8245e-10
-1.55824e-11
-5.27233e-09
-4.60918e-09
-4.14785e-10
-2.10638e-10
-3.25253e-10
-1.29857e-10
-3.65315e-11
-9.6073e-11
-3.76343e-10
-3.33223e-10
-2.12547e-11
-2.64928e-10
-1.17087e-09
-2.86693e-09
-6.81372e-09
-1.21688e-08
-1.62078e-08
-2.03168e-08
-2.4726e-08
-1.27723e-08
-7.21315e-10
-1.09465e-08
-5.26461e-09
-1.1632e-09
-1.40488e-09
-1.98936e-09
-1.44224e-09
-2.64748e-10
-1.01712e-09
-5.87904e-09
-1.01272e-08
-8.29093e-09
-3.03556e-09
-2.21181e-10
-3.54401e-10
-1.99559e-10
-5.03635e-10
-1.35815e-09
-1.77659e-10
-1.54619e-09
-1.43927e-08
-1.55084e-08
-2.46319e-09
-3.54003e-10
-1.1808e-09
-1.11022e-09
-6.00664e-10
-1.33397e-10
-2.99338e-10
-1.37084e-09
-1.2949e-09
-4.24835e-11
-2.22064e-09
-6.81809e-09
-1.21114e-08
-1.50283e-08
-1.36152e-08
-1.17166e-08
-1.2816e-08
-8.09739e-09
-3.95131e-09
-3.91197e-08
-3.22135e-08
-1.6634e-09
-5.01466e-10
-7.28816e-10
-4.33071e-10
-2.18092e-10
-2.22024e-09
-7.8385e-09
-1.18183e-08
-7.90654e-09
-1.6936e-09
-1.40138e-09
-6.31238e-09
-1.03554e-08
-3.03286e-09
-1.62428e-09
-2.21638e-09
-3.04955e-09
-1.29314e-08
-1.56875e-08
-3.20403e-09
-8.27621e-10
-2.4396e-09
-2.42854e-09
-1.4748e-09
-8.92816e-10
-3.34608e-10
-6.13874e-10
-1.17971e-09
-1.2595e-10
-1.94069e-09
-5.61002e-09
-7.4241e-09
-6.48271e-09
-4.00103e-09
-2.45058e-09
-1.90486e-09
-1.64184e-09
-6.80213e-09
-3.8613e-08
-3.83505e-08
-3.54199e-09
-1.41439e-09
-1.52976e-09
-3.34789e-10
-3.31766e-10
-1.71365e-09
-3.68262e-09
-4.6198e-09
-2.84706e-09
-8.03659e-10
-3.02526e-09
-7.96494e-09
-1.11217e-08
-7.21561e-09
-4.71093e-10
-7.45453e-09
-9.15258e-10
-7.43188e-09
-1.49094e-08
-6.42776e-09
-4.85209e-10
-2.02638e-09
-2.5275e-09
-1.53283e-09
-9.19754e-10
-1.1508e-09
-1.2856e-09
-1.87125e-09
-8.14674e-10
-1.02616e-09
-5.14584e-09
-7.21194e-09
-6.51892e-09
-4.18149e-09
-3.67564e-09
-4.1704e-09
-3.79145e-09
-4.28111e-09
-2.53224e-08
-4.43581e-08
-1.29548e-08
-1.54864e-09
-2.51048e-09
-4.30038e-10
-3.48295e-10
-1.16208e-09
-1.62179e-09
-2.26035e-09
-2.19438e-09
-9.7302e-10
-9.36515e-10
-3.75934e-09
-7.67522e-09
-8.59628e-09
-1.70628e-09
-7.40843e-09
-8.32626e-09
-2.32059e-09
-1.21368e-08
-9.53957e-09
-1.38906e-09
-1.96076e-09
-2.97805e-09
-1.64103e-09
-5.59594e-10
-1.76989e-09
-2.61078e-09
-2.46688e-09
-1.74451e-09
-5.24673e-10
-3.14221e-09
-5.07058e-09
-4.23336e-09
-3.03214e-09
-4.31326e-09
-6.07e-09
-5.51208e-09
-5.74444e-09
-1.37865e-08
-3.96752e-08
-2.60642e-08
-3.24372e-09
-3.88694e-09
-1.62512e-09
-2.17664e-10
-1.14857e-09
-9.7485e-10
-4.65227e-10
-4.80592e-10
-5.29797e-10
-1.10002e-09
-2.58237e-09
-5.77755e-09
-9.2841e-09
-6.15494e-09
-2.08228e-09
-2.34981e-08
-1.48902e-08
-4.25227e-09
-7.30973e-09
-2.72362e-09
-2.3596e-09
-3.723e-09
-1.83555e-09
-1.9142e-10
-1.30259e-09
-3.74348e-09
-3.63487e-09
-1.98905e-09
-5.91428e-10
-1.41643e-09
-2.50254e-09
-2.16489e-09
-1.78104e-09
-4.35043e-09
-7.72737e-09