/*--------------------------------*- C++ -*----------------------------------*\
| =========                 |                                                 |
| \\      /  F ield         | OpenFOAM: The Open Source CFD Toolbox           |
|  \\    /   O peration     | Version:  5.0                                   |
|   \\  /    A nd           | Web:      www.OpenFOAM.org                      |
|    \\/     M anipulation  |                                                 |
\*---------------------------------------------------------------------------*/
FoamFile
{
    version     2.0;
    format      ascii;
    class       volScalarField;
    location    "50.4676134421789371";
    object      dissww;
}
// * * * * * * * * * * * * * * * * * * * * * * * * * * * * * * * * * * * * * //

dimensions      [0 2 -3 0 0 0 0];

internalField   nonuniform List<scalar> 
60000
(
-1.07327e-07
-5.2487e-08
-1.02355e-08
-1.93307e-09
-3.19121e-08
-7.17375e-08
-5.80508e-08
-9.75379e-09
-1.37582e-08
-8.13614e-08
-1.11853e-07
-7.0585e-08
-1.76965e-08
-1.04917e-09
-1.8556e-08
-7.13929e-08
-1.3432e-07
-1.75413e-07
-2.22196e-07
-1.91003e-07
-4.3963e-08
-2.72103e-08
-1.69349e-07
-2.24682e-07
-1.55403e-07
-8.47569e-08
-6.28049e-08
-7.14541e-08
-6.29259e-08
-1.1613e-08
-2.80755e-08
-1.42642e-07
-2.36493e-07
-2.98823e-07
-3.24224e-07
-1.99895e-07
-1.70062e-08
-4.59623e-08
-1.37798e-07
-1.46286e-07
-3.05406e-08
-5.25039e-09
-3.71808e-09
-6.35962e-09
-6.24353e-09
-1.68909e-08
-1.68947e-08
-2.36506e-09
-2.73226e-08
-9.12748e-08
-1.08536e-07
-6.60515e-08
-1.3234e-08
-3.43487e-09
-2.56947e-08
-4.59163e-08
-4.92318e-08
-3.42279e-08
-1.83443e-08
-2.22046e-08
-7.98869e-08
-3.38794e-07
-5.94705e-07
-3.94368e-07
-1.17757e-07
-3.88449e-08
-1.03511e-07
-1.48541e-07
-8.46517e-08
-1.25839e-08
-3.373e-09
-3.76049e-09
-1.00144e-08
-1.29347e-08
-1.21691e-08
-1.16649e-08
-1.08212e-08
-2.48084e-09
-2.24239e-08
-4.51385e-08
-2.14015e-08
-2.38103e-08
-4.36755e-09
-2.38058e-09
-6.32966e-09
-3.51229e-09
-1.15675e-08
-3.50305e-08
-1.68864e-08
-9.53403e-09
-4.40125e-08
-5.09932e-08
-3.01338e-08
-6.88426e-09
-3.78725e-09
-4.95063e-09
-1.0157e-08
-1.40331e-08
-6.79734e-09
-4.18787e-08
-1.4061e-07
-2.78054e-07
-4.77951e-07
-3.11344e-07
-9.19537e-08
-8.14253e-08
-2.05763e-07
-3.16627e-07
-2.86006e-07
-9.45474e-08
-7.36728e-09
-7.038e-08
-7.4532e-08
-4.90033e-08
-3.72927e-08
-1.72901e-08
-3.24001e-08
-1.12546e-07
-5.85114e-08
-1.24906e-09
-1.87011e-08
-7.11332e-08
-3.88532e-08
-3.14916e-09
-2.89171e-09
-1.13137e-08
-1.28723e-09
-5.2633e-08
-7.05599e-08
-1.04377e-08
-1.98244e-08
-5.13784e-08
-3.83613e-08
-9.64935e-09
-5.46035e-09
-1.27945e-08
-1.4562e-08
-1.51972e-08
-5.30774e-09
-2.54311e-08
-1.0782e-07
-1.11239e-07
-1.4821e-07
-1.56898e-07
-8.33504e-08
-4.12401e-08
-4.87928e-08
-6.38628e-08
-7.15046e-08
-4.94595e-08
-1.09869e-08
-1.23012e-08
-2.74512e-08
-1.31279e-08
-6.77835e-10
-1.56625e-08
-3.72422e-08
-7.31729e-08
-7.63079e-08
-1.34662e-08
-4.81355e-09
-5.26387e-08
-9.98607e-08
-3.34759e-08
-5.02717e-09
-1.00905e-08
-4.48383e-09
-2.54899e-08
-1.00311e-07
-6.36032e-08
-2.60464e-09
-4.97233e-08
-7.32528e-08
-3.60294e-08
-5.09796e-09
-2.04321e-08
-2.70118e-08
-1.99486e-08
-1.77179e-08
-9.71479e-09
-1.25318e-07
-1.33713e-07
-5.70046e-08
-9.26105e-08
-8.47081e-08
-3.77634e-08
-1.16471e-08
-2.74539e-09
-1.69459e-09
-2.512e-09
-1.70075e-09
-9.28268e-09
-2.99393e-08
-3.49087e-08
-8.23778e-09
-8.43661e-09
-5.27239e-08
-8.84857e-08
-1.16426e-07
-8.22275e-08
-9.74295e-08
-3.11207e-09
-5.10244e-08
-6.26888e-08
-1.86977e-08
-1.33391e-08
-2.23269e-08
-3.11643e-10
-5.93992e-08
-1.15637e-07
-3.25557e-08
-8.84411e-09
-4.04086e-08
-3.58835e-08
-1.06981e-08
-2.62046e-08
-3.73243e-08
-2.61109e-08
-7.41373e-08
-2.66328e-08
-7.0129e-08
-1.71053e-07
-4.50686e-08
-2.17319e-08
-4.27839e-08
-2.2467e-08
-7.10905e-09
-3.40593e-09
-2.00765e-09
-1.04635e-09
-1.30727e-09
-6.90924e-09
-2.31207e-08
-4.49129e-08
-4.74493e-08
-1.06106e-08
-7.83743e-09
-5.09911e-08
-1.03853e-07
-1.51348e-07
-1.41065e-07
-6.46754e-08
-8.77525e-10
-2.51227e-08
-2.14362e-08
-1.37802e-08
-2.55383e-08
-1.74507e-08
-8.03028e-09
-7.22285e-08
-7.68498e-08
-1.19074e-08
-1.0004e-08
-1.78856e-08
-1.84611e-08
-2.88242e-08
-2.89907e-08
-3.67714e-08
-8.97212e-08
-1.10526e-07
-2.02779e-08
-1.54085e-07
-6.99756e-08
-5.09487e-09
-2.52892e-08
-1.54197e-08
-7.29951e-09
-4.64612e-09
-1.66083e-09
-1.22823e-09
-2.16109e-09
-5.50693e-09
-1.3053e-08
-2.34843e-08
-3.61849e-08
-3.41461e-08
-7.32891e-09
-8.29017e-09
-4.15573e-08
-1.04052e-07
-1.01079e-07
-8.52189e-08
-1.67613e-08
-1.61746e-09
-6.26958e-09
-4.86334e-09
-1.03438e-08
-2.22352e-08
-7.55552e-09
-1.87751e-08
-5.54487e-08
-4.78787e-08
-2.83848e-08
-3.43826e-08
-3.48448e-08
-8.74962e-09
-1.9539e-08
-4.4728e-08
-4.72974e-08
-8.32625e-08
-3.71361e-08
-8.62207e-08
-9.88643e-08
-3.04232e-08
-2.74226e-08
-8.58577e-09
-9.32403e-09
-4.76423e-09
-7.97117e-10
-7.57381e-10
-2.38537e-09
-6.19844e-09
-1.0751e-08
-1.45146e-08
-1.71243e-08
-2.13692e-08
-1.8477e-08
-8.08866e-09
-1.11903e-08
-4.32582e-08
-4.60872e-08
-6.22649e-08
-1.79756e-08
-4.38977e-10
-2.58658e-09
-5.40281e-10
-3.40491e-10
-4.09518e-09
-1.24594e-08
-1.13378e-08
-1.53342e-08
-4.25453e-08
-6.74622e-08
-6.76174e-08
-2.8312e-08
-7.39751e-09
-4.62745e-08
-3.52276e-08
-1.66307e-08
-1.86542e-08
-2.79713e-08
-2.5971e-08
-1.13318e-07
-5.88176e-08
-1.66537e-08
-4.83013e-09
-1.12199e-08
-3.89073e-09
-3.04996e-10
-5.11049e-10
-2.7891e-09
-7.65066e-09
-1.17037e-08
-1.17613e-08
-1.01615e-08
-7.08776e-09
-7.60873e-09
-1.02074e-08
-9.78422e-09
-1.35517e-08
-1.33011e-08
-3.13084e-08
-1.222e-08
-1.69297e-09
-7.90853e-09
-1.77551e-09
-2.3224e-09
-3.38281e-09
-3.47685e-09
-1.37783e-08
-1.09092e-08
-8.12202e-09
-4.87787e-08
-4.61401e-08
-6.97507e-09
-1.23956e-08
-2.83492e-08
-1.5192e-08
-5.86102e-09
-5.64646e-09
-5.83618e-09
-4.1141e-09
-9.21789e-08
-6.68837e-08
-7.40383e-09
-9.6954e-09
-1.10989e-08
-3.02649e-09
-1.50353e-10
-3.7997e-10
-3.24464e-09
-9.48119e-09
-1.37649e-08
-1.25479e-08
-8.32512e-09
-4.47161e-09
-1.32802e-09
-3.19125e-09
-7.7848e-09
-7.74744e-09
-3.73057e-09
-1.16529e-08
-9.20691e-09
-1.91786e-09
-8.02166e-09
-6.1728e-09
-1.33777e-09
-3.38812e-09
-2.89487e-09
-5.76143e-09
-1.35191e-08
-1.35176e-09
-1.9674e-08
-2.72503e-08
-4.59929e-09
-2.0227e-09
-8.22003e-09
-8.90126e-09
-3.69481e-09
-9.60423e-09
-1.26513e-08
-1.18503e-08
-4.59498e-08
-3.93109e-08
-1.2806e-08
-1.42272e-08
-8.34676e-09
-2.17462e-09
-2.99109e-10
-4.95292e-10
-2.29076e-09
-7.10187e-09
-1.41694e-08
-1.55606e-08
-1.00229e-08
-4.8581e-09
-1.33247e-09
-4.4474e-10
-2.7102e-09
-5.07365e-09
-2.33998e-09
-5.55977e-09
-9.25081e-09
-2.15416e-09
-9.29567e-10
-4.24135e-09
-4.31803e-09
-1.34429e-09
-4.85913e-10
-2.17306e-09
-7.53465e-09
-7.03337e-09
-1.10276e-08
-3.57866e-08
-1.55081e-08
-3.09997e-09
-7.64176e-09
-1.60706e-08
-7.79254e-09
-1.57577e-08
-3.08936e-08
-2.71764e-08
-1.62207e-08
-1.67065e-08
-2.49557e-08
-1.63631e-08
-5.57134e-09
-2.42977e-09
-9.00554e-10
-1.39897e-09
-2.91241e-09
-2.81788e-09
-8.14673e-09
-1.82745e-08
-1.58866e-08
-7.23637e-09
-2.1825e-09
-3.23749e-10
-6.78694e-10
-2.45683e-09
-2.3941e-09
-4.14097e-09
-1.03633e-08
-1.04469e-08
-5.4488e-09
-2.08065e-09
-5.74479e-09
-8.22002e-09
-2.29777e-09
-1.19932e-09
-7.96222e-09
-7.45716e-09
-5.97785e-09
-3.47279e-08
-2.76081e-08
-1.28081e-08
-1.92061e-08
-2.35445e-08
-1.40882e-08
-1.98638e-08
-3.96769e-08
-3.80473e-08
-9.16576e-09
-1.09413e-08
-2.07687e-08
-1.13417e-08
-5.67794e-09
-3.00669e-09
-8.78816e-10
-1.98573e-09
-6.74304e-09
-8.30936e-09
-2.50148e-09
-1.20571e-08
-2.48657e-08
-1.54982e-08
-5.24493e-09
-8.49085e-10
-2.763e-10
-1.36887e-09
-2.01188e-09
-1.98938e-09
-7.08932e-09
-1.08146e-08
-5.78917e-09
-6.7651e-10
-2.80381e-09
-1.01302e-08
-7.62111e-09
-3.51166e-10
-9.60645e-09
-1.68837e-08
-9.68438e-10
-2.33904e-08
-3.49808e-08
-2.69794e-08
-2.18202e-08
-6.8055e-09
-1.14816e-08
-1.49977e-08
-2.18276e-08
-3.47495e-08
-1.52488e-08
-6.35858e-09
-9.36908e-09
-8.11872e-09
-4.74516e-09
-1.78888e-09
-4.66093e-10
-1.31897e-09
-8.34791e-09
-1.99037e-08
-1.6382e-08
-1.8169e-09
-2.05904e-08
-2.82008e-08
-1.3871e-08
-2.86244e-09
-4.77803e-10
-4.38722e-10
-1.16534e-09
-2.17508e-09
-8.5914e-10
-1.94359e-09
-2.05712e-09
-1.80333e-09
-3.36085e-10
-1.82727e-09
-6.50561e-09
-3.17787e-09
-4.31e-09
-1.78559e-08
-9.24716e-09
-9.00749e-09
-3.22113e-08
-2.27523e-08
-3.39096e-09
-3.16654e-09
-5.40658e-09
-1.1861e-08
-7.34225e-09
-1.12266e-08
-1.77842e-08
-8.55642e-09
-7.31596e-09
-5.27173e-09
-2.27818e-09
-2.54671e-09
-1.9601e-09
-8.53677e-10
-5.33381e-09
-1.92093e-08
-3.17158e-08
-1.47886e-08
-3.1525e-09
-2.55366e-08
-2.31178e-08
-9.02422e-09
-1.11862e-09
-2.53483e-10
-8.66733e-10
-3.04225e-09
-3.39802e-09
-9.77152e-10
-1.13358e-10
-2.11113e-09
-3.90062e-09
-2.42469e-09
-1.71004e-09
-3.11009e-09
-2.13051e-09
-8.91826e-09
-9.3082e-09
-1.14084e-09
-1.25742e-08
-5.27338e-09
-3.27313e-09
-6.32202e-09
-1.61751e-09
-6.82649e-09
-1.25792e-08
-5.2966e-09
-8.46215e-09
-9.61862e-09
-4.17814e-09
-3.22781e-10
-2.03475e-09
-3.6447e-09
-2.52637e-09
-7.8784e-10
-9.30616e-10
-8.79019e-09
-2.56248e-08
-3.01671e-08
-6.63672e-09
-5.90004e-09
-2.00907e-08
-1.41206e-08
-4.17137e-09
-4.7152e-10
-1.94691e-09
-3.57614e-09
-2.86969e-09
-1.11764e-09
-3.93642e-10
-1.57119e-09
-3.8478e-09
-3.73036e-09
-1.75732e-09
-1.11998e-09
-2.01651e-09
-4.95342e-09
-7.87821e-09
-1.46658e-09
-1.99483e-09
-5.24188e-09
-4.70669e-09
-1.41578e-09
-6.50316e-10
-4.10352e-09
-8.16705e-09
-5.20245e-09
-4.95648e-09
-7.55676e-09
-4.46287e-09
-2.77309e-09
-4.52141e-09
-3.11167e-09
-2.06175e-09
-2.78469e-09
-1.33394e-09
-1.37082e-09
-1.41205e-08
-2.91205e-08
-2.16286e-08
-1.93002e-09
-7.27951e-09
-1.33411e-08
-7.73789e-09
-2.10762e-09
-4.56622e-09
-4.84093e-09
-3.09183e-09
-8.0856e-10
-6.16957e-10
-1.63328e-09
-3.09694e-09
-4.49785e-09
-2.93705e-09
-3.28699e-10
-1.87715e-09
-4.83567e-09
-6.39963e-09
-4.18006e-09
-5.88122e-09
-9.43073e-09
-7.30416e-09
-3.73176e-09
-2.07793e-09
-5.23443e-09
-9.09029e-09
-7.08109e-09
-3.6378e-09
-4.54445e-09
-6.07482e-09
-6.76531e-09
-5.74603e-09
-1.21223e-09
-2.44449e-09
-4.50351e-09
-3.18096e-09
-1.19665e-09
-8.6136e-09
-2.78508e-08
-2.59968e-08
-1.17349e-08
-1.69545e-09
-8.04677e-09
-9.62889e-09
-5.84988e-09
-8.68667e-09
-7.10316e-09
-4.82032e-09
-1.6408e-09
-1.58458e-09
-1.95408e-09
-1.47282e-09
-3.1292e-09
-4.28793e-09
-1.10229e-09
-1.07817e-09
-4.58925e-09
-2.4707e-09
-1.14959e-09
-5.682e-09
-8.73032e-09
-6.80359e-09
-1.04741e-09
-2.94957e-09
-5.91772e-09
-7.4744e-09
-8.51795e-09
-3.95538e-09
-1.06443e-09
-4.07545e-09
-3.45798e-09
-5.34475e-10
-5.30688e-09
-4.3956e-09
-1.55674e-09
-5.88084e-09
-1.13112e-08
-9.54832e-09
-1.9922e-08
-3.2459e-08
-1.86141e-08
-4.84818e-09
-2.46138e-09
-6.41329e-09
-8.23953e-09
-3.45615e-09
-1.98688e-09
-8.31149e-10
-1.07406e-09
-2.14147e-09
-1.68324e-09
-8.50775e-10
-7.16671e-11
-1.66808e-09
-3.1949e-09
-1.12891e-09
-2.46322e-09
-5.3947e-09
-4.33532e-09
-5.32479e-09
-5.28031e-09
-1.88756e-09
-2.97859e-09
-7.59795e-09
-7.34107e-09
-3.70158e-09
-2.50047e-09
-2.41196e-09
-8.63566e-10
-6.02299e-10
-1.64913e-09
-2.87445e-09
-2.50979e-09
-1.61948e-09
-3.69007e-09
-5.30494e-09
-4.46202e-09
-3.63954e-09
-6.24791e-09
-2.16727e-08
-2.30134e-08
-7.18082e-09
-3.89176e-10
-2.41552e-09
-3.88764e-09
-1.10422e-09
-5.18465e-10
-8.2532e-10
-1.14563e-09
-1.03703e-09
-1.31215e-09
-2.13403e-09
-2.01048e-09
-6.96441e-10
-2.01658e-09
-3.16039e-09
-9.30651e-10
-2.33295e-09
-6.55015e-09
-6.40111e-09
-2.83423e-09
-1.52206e-09
-2.68349e-09
-3.67438e-09
-3.93029e-09
-3.15726e-09
-1.29953e-09
-5.99645e-11
-1.58785e-10
-1.9347e-10
-2.67468e-10
-4.91638e-10
-5.90696e-10
-9.15947e-10
-2.27787e-09
-5.11033e-09
-7.11441e-09
-4.86037e-09
-2.29926e-09
-6.86425e-09
-1.61703e-08
-9.59125e-09
-1.93391e-09
-2.73235e-09
-2.88579e-09
-3.05735e-09
-2.56745e-09
-2.51478e-09
-1.66795e-09
-8.99088e-10
-1.24064e-09
-1.97685e-09
-2.45339e-09
-1.74033e-09
-7.6273e-10
-1.79791e-09
-1.91374e-09
-4.54792e-10
-2.78785e-10
-1.16957e-09
-2.83322e-09
-4.51109e-09
-4.79634e-09
-2.72474e-09
-8.07002e-10
-2.33126e-09
-3.70361e-09
-2.85762e-09
-1.72018e-09
-1.29823e-09
-9.24913e-10
-4.49576e-10
-4.43281e-10
-1.53708e-09
-3.4559e-09
-4.90171e-09
-5.22494e-09
-4.96196e-09
-3.53716e-09
-2.1381e-09
-4.19848e-09
-5.55063e-09
-3.44339e-09
-2.64818e-09
-3.31613e-09
-1.6597e-09
-1.92478e-09
-1.38044e-09
-6.03266e-10
-3.48611e-10
-6.35875e-10
-1.62947e-09
-1.83753e-09
-4.53531e-10
-2.40702e-10
-1.31729e-09
-1.2132e-09
-1.51278e-10
-3.81892e-10
-1.2071e-09
-1.87414e-09
-2.86342e-09
-3.35698e-09
-2.06624e-09
-2.78743e-10
-9.86346e-10
-2.34863e-09
-1.72736e-09
-5.73351e-10
-2.67671e-10
-1.16658e-09
-2.31118e-09
-2.3685e-09
-1.73551e-09
-2.05099e-09
-3.27982e-09
-2.68574e-09
-5.9558e-10
-6.407e-10
-1.33353e-09
-9.80317e-10
-5.39321e-10
-7.33635e-10
-1.13856e-09
-1.36181e-09
-2.96626e-10
-2.82355e-10
-6.62582e-10
-1.33229e-09
-1.39718e-09
-7.88335e-10
-1.03193e-09
-2.3789e-09
-1.47417e-09
-1.99939e-10
-3.07052e-09
-4.10781e-09
-1.60288e-09
-3.54941e-10
-1.37278e-09
-2.17411e-09
-2.09447e-09
-2.15195e-09
-1.63344e-09
-4.76437e-10
-1.29072e-10
-8.60431e-10
-1.02001e-09
-4.45252e-10
-4.39289e-10
-1.21439e-09
-1.41421e-09
-7.52276e-10
-1.13988e-10
-3.71058e-10
-1.84171e-09
-3.08314e-09
-2.20848e-09
-2.20416e-10
-1.5497e-09
-2.08398e-09
-9.80555e-10
-1.98303e-10
-2.37371e-11
-1.89207e-10
-2.17645e-09
-2.10875e-09
-1.3452e-09
-1.20904e-09
-1.89779e-09
-1.61941e-09
-3.15861e-10
-8.98681e-10
-2.56386e-09
-1.40534e-09
-9.72429e-10
-4.67298e-09
-6.75984e-09
-3.42288e-09
-2.50732e-10
-2.46391e-09
-6.60387e-09
-7.10983e-09
-4.43629e-09
-1.83484e-09
-5.64035e-10
-2.10649e-10
-4.29771e-10
-8.99175e-10
-1.21273e-09
-1.41808e-09
-1.44207e-09
-1.13802e-09
-7.2241e-10
-5.76526e-10
-1.1094e-09
-2.84625e-09
-4.24827e-09
-2.83425e-09
-1.07564e-09
-1.78784e-09
-1.89706e-09
-7.23689e-10
-1.66292e-10
-1.14051e-09
-2.19258e-08
-1.1605e-08
-8.17164e-10
-1.10288e-09
-1.93046e-09
-5.21305e-09
-1.07646e-08
-2.24693e-09
-7.53735e-09
-3.91445e-08
-5.91139e-08
-5.81963e-08
-4.80285e-08
-3.62973e-08
-2.88707e-08
-3.53527e-08
-4.83362e-08
-1.71973e-08
-5.54072e-08
-4.05327e-07
-4.9416e-07
-1.13542e-07
-2.46876e-08
-2.64318e-07
-4.41685e-07
-4.53454e-07
-3.68154e-07
-2.50385e-07
-1.17164e-07
-2.05015e-08
-1.64067e-08
-7.80695e-08
-1.27647e-07
-1.11947e-07
-6.07342e-08
-3.53031e-08
-2.291e-08
-6.52421e-09
-3.93252e-10
-9.17757e-09
-1.98489e-08
-6.18227e-09
-1.85319e-09
-3.60958e-09
-8.13426e-09
-7.93189e-09
-2.30178e-09
-9.26359e-09
-6.90564e-09
-5.07384e-09
-2.6122e-08
-2.34648e-08
-5.79281e-09
-4.81624e-09
-2.11551e-08
-3.20774e-08
-2.48893e-08
-4.77662e-08
-6.80984e-08
-1.40387e-08
-1.87611e-07
-1.3467e-07
-5.72179e-08
-3.02431e-07
-2.38128e-07
-5.10284e-08
-4.60815e-08
-9.65653e-08
-7.08524e-08
-2.53717e-08
-7.19036e-09
-8.78663e-09
-1.52909e-08
-2.77041e-08
-3.19732e-08
-1.29476e-08
-8.20982e-10
-3.00491e-09
-1.34775e-08
-2.74061e-08
-1.9356e-08
-9.81474e-09
-1.355e-09
-9.8529e-10
-1.00123e-08
-2.08582e-08
-1.20439e-08
-1.7778e-08
-8.19026e-08
-5.30368e-08
-1.31998e-08
-7.49139e-09
-7.31059e-09
-5.55437e-08
-1.44945e-07
-2.13667e-07
-1.53731e-07
-3.50062e-08
-2.50292e-07
-3.2956e-07
-1.38098e-08
-2.81928e-07
-1.16059e-07
-1.91777e-07
-1.59895e-07
-4.03985e-08
-2.38732e-07
-4.77028e-07
-4.38353e-07
-2.23035e-07
-6.59219e-08
-1.07837e-08
-5.65953e-09
-8.75388e-09
-2.64877e-08
-1.98943e-08
-2.58565e-09
-9.69715e-09
-1.28817e-08
-1.35036e-08
-1.87643e-08
-1.6862e-08
-2.22867e-09
-2.66359e-09
-4.3974e-09
-8.8753e-09
-1.06708e-08
-3.60092e-09
-5.2968e-08
-7.80469e-08
-2.47962e-08
-8.01813e-09
-2.24992e-09
-2.04061e-08
-7.85402e-08
-1.25548e-07
-9.93657e-08
-2.61469e-08
-1.16864e-07
-2.9762e-07
-3.901e-08
-2.31751e-07
-2.03852e-07
-1.025e-07
-1.7475e-07
-6.82864e-08
-2.9205e-08
-7.59201e-08
-1.00104e-07
-7.54143e-08
-3.73509e-08
-1.33027e-08
-4.9887e-09
-8.57542e-09
-3.78363e-08
-6.06218e-08
-2.15168e-08
-1.8501e-08
-4.61197e-08
-1.53939e-08
-1.64171e-08
-2.96353e-08
-8.47865e-09
-8.2036e-10
-4.9342e-09
-8.2554e-09
-1.58425e-08
-1.09006e-08
-1.24654e-08
-9.55886e-08
-7.34547e-08
-1.55006e-08
-5.99875e-09
-6.11791e-09
-3.58741e-08
-6.26363e-08
-5.1193e-08
-2.66201e-08
-5.90551e-08
-2.63034e-07
-1.73376e-07
-9.54545e-08
-2.70878e-07
-6.69492e-08
-1.00301e-07
-8.21884e-08
-2.8759e-08
-6.31312e-09
-1.36106e-09
-1.33745e-09
-1.50377e-09
-2.8189e-09
-6.41945e-09
-5.7503e-09
-2.93629e-09
-4.37711e-08
-5.38762e-08
-3.02913e-08
-6.18046e-08
-4.10024e-08
-1.74082e-08
-3.18552e-08
-2.00742e-08
-4.97665e-10
-4.80143e-09
-6.75115e-09
-1.48644e-08
-4.05657e-08
-1.26634e-08
-4.50658e-08
-1.39941e-07
-7.63928e-08
-1.97475e-08
-1.00196e-08
-1.63383e-08
-2.30685e-08
-2.67867e-08
-2.37439e-08
-1.77149e-08
-8.64254e-08
-2.12155e-07
-4.79749e-08
-1.98992e-07
-8.72838e-08
-1.37254e-08
-3.02406e-08
-1.73061e-08
-4.46533e-09
-3.07067e-09
-7.11717e-09
-1.39479e-08
-2.59825e-08
-4.1592e-08
-4.92343e-08
-2.66917e-08
-2.49029e-09
-3.31404e-08
-3.82429e-08
-6.38143e-08
-9.31657e-08
-6.60681e-08
-1.75337e-08
-2.68542e-08
-3.36843e-09
-3.70247e-09
-6.79715e-09
-7.36691e-09
-3.995e-08
-9.12219e-08
-1.0587e-08
-8.5839e-08
-1.55173e-07
-8.1446e-08
-2.42156e-08
-4.42689e-09
-2.57355e-08
-4.46923e-08
-2.32118e-08
-1.09522e-08
-1.24845e-08
-9.95084e-08
-8.8568e-08
-1.18862e-07
-9.36112e-08
-8.23919e-09
-2.73528e-08
-2.08284e-08
-4.28815e-09
-1.45001e-09
-6.58518e-09
-1.58641e-08
-3.23536e-08
-5.60067e-08
-7.69554e-08
-7.03855e-08
-2.2424e-08
-3.45845e-09
-2.31163e-08
-4.89036e-08
-1.22158e-07
-1.30299e-07
-2.58981e-08
-1.97368e-08
-6.41597e-09
-3.04275e-09
-7.05563e-09
-4.4367e-09
-1.62551e-08
-1.0454e-07
-1.36927e-07
-1.32707e-08
-1.09549e-07
-1.34263e-07
-4.04911e-08
-3.6403e-09
-4.89956e-08
-4.67826e-08
-1.58676e-08
-8.58022e-09
-5.53487e-09
-3.44144e-08
-9.1189e-08
-7.93233e-08
-7.6154e-08
-4.62466e-08
-5.40557e-08
-2.89509e-08
-4.49816e-09
-4.95624e-11
-1.07487e-09
-5.91684e-09
-2.04703e-08
-4.41889e-08
-6.14422e-08
-6.98249e-08
-5.17157e-08
-8.96007e-09
-3.4614e-09
-2.31946e-08
-9.27167e-08
-1.22331e-07
-6.92614e-08
-1.90699e-08
-8.44989e-09
-2.74806e-10
-4.38838e-09
-9.65099e-09
-7.03791e-09
-2.02796e-08
-1.63113e-07
-1.36488e-07
-2.30557e-08
-7.53025e-08
-4.04315e-08
-3.6108e-09
-2.44247e-08
-1.63074e-08
-7.88381e-09
-7.06415e-09
-3.70372e-09
-1.09705e-08
-6.45531e-08
-4.60294e-08
-5.64643e-08
-6.9263e-08
-6.67688e-08
-1.90651e-08
-8.82104e-10
-7.48788e-11
-6.05224e-10
-1.99849e-09
-6.83391e-09
-1.7432e-08
-3.04788e-08
-3.74982e-08
-4.01236e-08
-2.36757e-08
-2.71926e-09
-3.40569e-09
-4.08524e-08
-6.67951e-08
-7.40027e-08
-2.12288e-08
-1.15928e-08
-4.51509e-09
-3.48251e-09
-1.15517e-08
-2.88481e-08
-1.93012e-08
-2.36552e-08
-1.88334e-07
-1.22715e-07
-2.00351e-08
-2.32004e-08
-1.29942e-08
-1.02521e-08
-8.45971e-09
-6.09906e-09
-2.95556e-09
-1.95458e-09
-1.92091e-09
-2.82128e-08
-1.56356e-08
-4.50044e-08
-8.04774e-08
-4.58097e-08
-2.1442e-09
-1.13608e-09
-6.1933e-10
-7.04644e-10
-1.70914e-09
-3.89083e-09
-6.84745e-09
-9.96444e-09
-1.49663e-08
-1.70144e-08
-1.72795e-08
-9.46491e-09
-1.94685e-09
-6.54468e-09
-1.94271e-08
-4.56597e-08
-1.77309e-08
-1.72465e-08
-1.0154e-08
-4.03109e-09
-6.90157e-09
-1.91061e-08
-3.60307e-08
-1.44484e-08
-4.11204e-08
-1.76408e-07
-7.6956e-08
-1.12732e-08
-3.454e-08
-3.50685e-08
-1.38298e-08
-2.80357e-09
-1.20289e-09
-1.59485e-09
-3.27503e-09
-4.90627e-09
-1.2057e-09
-3.81839e-08
-5.68174e-08
-9.65931e-09
-4.43127e-09
-2.97305e-09
-2.33619e-10
-2.94354e-10
-1.42577e-09
-3.42432e-09
-4.70546e-09
-5.51964e-09
-7.64737e-09
-8.98989e-09
-8.21392e-09
-7.35004e-09
-6.14695e-09
-5.25668e-10
-2.29063e-09
-1.8636e-08
-1.92358e-08
-2.17851e-08
-9.19313e-09
-1.02378e-09
-5.18081e-09
-1.17971e-08
-2.04213e-08
-2.19775e-08
-1.56992e-09
-6.01087e-08
-8.8534e-08
-1.78438e-08
-2.24888e-08
-2.69824e-08
-7.89929e-09
-4.30505e-09
-2.47332e-09
-3.33254e-09
-1.38338e-08
-8.68073e-09
-4.1756e-09
-1.45589e-08
-1.1196e-08
-9.33667e-09
-5.6349e-09
-6.77456e-10
-5.14533e-10
-6.27815e-10
-1.91794e-09
-3.14942e-09
-2.55347e-09
-4.94432e-09
-9.06688e-09
-8.38422e-09
-5.84709e-09
-3.84333e-09
-4.66564e-09
-3.32583e-09
-1.71283e-09
-5.79418e-09
-1.52699e-08
-2.37661e-08
-1.24173e-08
-1.82747e-09
-1.22855e-09
-5.4956e-09
-1.34913e-08
-2.04457e-08
-6.90072e-09
-1.08792e-08
-5.54477e-08
-2.64694e-08
-3.27896e-09
-7.4795e-09
-1.07077e-08
-1.04729e-08
-2.86862e-09
-1.06608e-08
-2.9048e-08
-2.61137e-08
-7.92351e-09
-1.62335e-09
-1.05831e-08
-8.27071e-09
-3.14585e-09
-1.56042e-09
-1.79911e-10
-3.90642e-10
-4.46511e-09
-1.18988e-08
-8.87349e-09
-9.44135e-10
-1.12907e-08
-1.49402e-08
-7.36156e-09
-3.07106e-09
-2.14546e-09
-3.38601e-09
-2.42229e-09
-2.7333e-09
-6.9522e-09
-1.04183e-08
-7.33254e-09
-3.03087e-09
-1.12505e-09
-4.91483e-10
-4.20919e-09
-1.75741e-08
-1.83042e-08
-1.89932e-09
-3.45723e-08
-3.37099e-08
-1.02606e-08
-1.38036e-08
-2.18997e-08
-9.49185e-09
-2.41354e-09
-2.17294e-08
-3.61828e-08
-3.10724e-08
-9.55066e-09
-8.48238e-10
-5.80056e-09
-6.30244e-09
-4.6706e-09
-3.83853e-09
-3.64509e-09
-1.11229e-09
-1.01982e-08
-3.37963e-08
-3.91026e-08
-1.19907e-08
-3.543e-09
-2.17448e-08
-1.41005e-08
-4.50115e-09
-1.4981e-09
-2.08261e-09
-2.38013e-09
-1.58969e-09
-2.0344e-09
-2.19465e-09
-1.29093e-09
-1.61573e-09
-1.92021e-09
-1.27661e-09
-3.56516e-10
-6.74532e-09
-1.80626e-08
-6.92483e-09
-1.50557e-08
-3.20424e-08
-2.53088e-08
-2.6326e-08
-1.8928e-08
-4.52465e-09
-7.03694e-09
-2.09542e-08
-2.76695e-08
-2.22269e-08
-8.79056e-09
-2.13672e-09
-8.54279e-09
-1.32205e-08
-1.38687e-08
-1.07455e-08
-7.42005e-09
-4.48072e-09
-8.82938e-09
-2.7164e-08
-4.93225e-08
-3.77849e-08
-3.39045e-09
-1.20718e-08
-2.15197e-08
-7.76761e-09
-2.18965e-09
-1.19699e-09
-2.30485e-09
-3.64158e-09
-2.00742e-09
-4.5027e-10
-1.65318e-10
-1.65848e-09
-3.00963e-09
-1.99739e-09
-1.6327e-10
-2.18552e-09
-9.22331e-09
-7.11452e-09
-4.60765e-09
-2.15277e-08
-2.36222e-08
-1.44663e-08
-9.81205e-09
-8.54666e-09
-5.77002e-09
-1.04268e-08
-1.37967e-08
-1.04252e-08
-4.12977e-09
-3.41749e-09
-1.46186e-08
-1.67713e-08
-7.05458e-09
-6.88505e-09
-7.68605e-09
-4.22507e-09
-1.38868e-09
-4.73339e-09
-2.71323e-08
-4.58382e-08
-2.16573e-08
-6.59372e-10
-1.64742e-08
-1.4553e-08
-4.67952e-09
-1.45114e-09
-3.08694e-09
-4.13988e-09
-3.28255e-09
-1.12639e-09
-4.1031e-10
-6.61516e-10
-1.62171e-09
-2.86441e-09
-1.77634e-09
-1.2933e-09
-6.31456e-09
-5.82956e-09
-1.42188e-09
-1.293e-08
-1.57137e-08
-9.62828e-09
-7.11626e-09
-2.77583e-09
-2.15216e-09
-7.06298e-09
-6.99189e-09
-3.48039e-09
-1.90827e-09
-4.11849e-09
-5.9168e-09
-1.22372e-09
-8.46024e-10
-3.72009e-09
-3.88722e-09
-4.12405e-09
-5.5185e-09
-3.11416e-09
-7.14884e-09
-3.3271e-08
-3.75875e-08
-8.91584e-09
-4.04709e-09
-1.64085e-08
-1.08246e-08
-4.28251e-09
-6.52972e-09
-4.50785e-09
-2.23888e-09
-8.69194e-10
-7.19269e-10
-6.70002e-10
-2.3012e-10
-9.70627e-10
-2.62156e-09
-1.88704e-09
-3.86488e-09
-6.61567e-09
-2.39423e-09
-9.46998e-09
-1.28269e-08
-5.73166e-09
-3.21485e-09
-2.8385e-09
-2.5769e-09
-6.22595e-09
-6.76611e-09
-2.53114e-09
-1.13804e-09
-3.49386e-09
-4.22575e-09
-2.91527e-09
-3.08136e-09
-3.2332e-09
-2.12608e-09
-2.19476e-09
-3.84114e-09
-4.27977e-09
-1.79263e-09
-1.3763e-08
-3.28973e-08
-2.44738e-08
-3.49611e-09
-6.91016e-09
-1.32255e-08
-9.8177e-09
-7.95788e-09
-5.42217e-09
-2.65548e-09
-1.23534e-09
-9.81891e-10
-9.88772e-10
-7.29056e-10
-1.40438e-10
-1.49743e-09
-3.02393e-09
-1.67783e-09
-2.48918e-09
-3.10251e-09
-3.04837e-09
-3.67953e-09
-4.30487e-09
-4.2215e-09
-2.2525e-09
-2.48437e-10
-1.66009e-09
-5.63844e-09
-5.86875e-09
-2.63306e-09
-1.45069e-09
-1.80049e-09
-3.81797e-09
-4.94734e-09
-1.26674e-09
-9.34018e-11
-1.30085e-10
-1.02587e-09
-3.98738e-09
-1.82555e-09
-3.77726e-09
-2.03341e-08
-2.35288e-08
-9.50079e-09
-1.66012e-09
-5.96189e-09
-8.89073e-09
-2.82542e-09
-8.49958e-10
-3.29104e-10
-9.24581e-10
-1.30063e-09
-9.69728e-10
-1.11687e-09
-1.25671e-09
-4.36279e-10
-2.4364e-09
-3.40953e-09
-3.61793e-10
-2.6977e-09
-7.15729e-09
-7.05099e-09
-3.0999e-09
-1.32258e-09
-2.40452e-09
-2.44383e-09
-6.82698e-10
-8.82624e-10
-2.81613e-09
-1.65087e-09
-8.88155e-11
-1.3073e-09
-1.40781e-09
-4.34818e-10
-1.30077e-09
-1.58445e-09
-1.49452e-09
-3.41664e-09
-7.41958e-09
-5.96813e-09
-3.97914e-10
-9.96155e-09
-1.79863e-08
-8.46422e-09
-6.06155e-10
-2.01081e-09
-4.24604e-09
-1.03779e-09
-4.42045e-10
-1.90225e-09
-2.65261e-09
-1.3634e-09
-4.66344e-10
-1.27798e-09
-2.99677e-09
-3.07451e-09
-1.14073e-09
-3.3363e-09
-3.3933e-09
-2.54627e-09
-6.83863e-09
-6.06462e-09
-1.64564e-09
-1.6872e-09
-5.3325e-09
-6.17555e-09
-3.0998e-09
-4.49959e-10
-3.57226e-10
-4.9708e-10
-2.75768e-11
-6.66448e-10
-7.51162e-10
-2.1818e-10
-7.86775e-10
-1.79952e-09
-1.77939e-09
-2.47449e-09
-4.93048e-09
-6.24426e-09
-3.35073e-09
-3.4939e-09
-1.45873e-08
-1.29534e-08
-2.93153e-09
-7.36063e-10
-2.05223e-09
-3.57483e-09
-2.83602e-09
-2.60675e-09
-2.09154e-09
-1.47518e-09
-1.55897e-09
-1.82163e-09
-2.8254e-09
-3.79147e-09
-2.19609e-09
-1.0827e-09
-2.676e-09
-1.4391e-09
-2.458e-10
-2.10036e-09
-4.30459e-09
-4.22179e-09
-3.32296e-09
-3.40405e-09
-3.0194e-09
-1.70127e-09
-8.51415e-10
-5.35224e-10
-5.46299e-10
-1.51273e-09
-2.72515e-09
-2.05518e-09
-9.57194e-10
-2.49348e-09
-4.4387e-09
-4.2033e-09
-3.5177e-09
-3.70696e-09
-5.35481e-09
-5.29578e-09
-5.27033e-09
-8.17399e-09
-6.99353e-09
-4.06853e-09
-3.66102e-09
-6.33915e-09
-4.97237e-09
-1.49145e-09
-9.76187e-11
-1.71716e-09
-2.10285e-09
-9.45185e-10
-8.52179e-10
-1.53036e-09
-1.13556e-09
-5.83309e-10
-9.17173e-10
-6.28152e-10
-4.81015e-10
-1.77927e-09
-3.20529e-09
-2.21599e-09
-4.58597e-10
-8.23145e-10
-1.90423e-09
-1.96774e-09
-1.43964e-09
-1.05307e-09
-9.34938e-10
-1.29874e-09
-2.55976e-09
-4.01463e-09
-3.45665e-09
-2.12545e-09
-2.7272e-09
-2.78753e-09
-1.09286e-09
-4.95921e-10
-2.05705e-10
-9.18191e-10
-2.68755e-09
-1.9411e-09
-9.69952e-10
-2.29258e-09
-4.8243e-09
-5.60609e-10
-6.49218e-10
-8.7193e-10
-9.16747e-10
-6.49725e-10
-2.65817e-10
-2.8244e-10
-8.49654e-10
-1.42792e-09
-1.59532e-09
-2.17302e-09
-3.02272e-09
-2.27739e-09
-8.18139e-10
-1.27613e-09
-3.47681e-09
-5.11056e-09
-4.43848e-09
-2.20928e-09
-6.04886e-10
-7.11892e-10
-1.41533e-09
-1.10849e-09
-2.28749e-10
-4.00307e-10
-1.51682e-09
-1.78988e-09
-9.75101e-10
-1.57586e-10
-4.76705e-10
-2.03149e-09
-2.87234e-09
-9.98418e-10
-1.22561e-09
-2.35608e-09
-1.5691e-09
-5.22018e-10
-6.13001e-11
-2.66296e-10
-5.34615e-10
-1.58323e-09
-1.74776e-09
-1.23749e-09
-1.19516e-09
-1.35541e-09
-7.73847e-10
-2.37695e-10
-8.9467e-10
-1.34137e-09
-1.0026e-09
-1.59386e-09
-3.61293e-09
-4.14377e-09
-1.69961e-09
-2.05889e-10
-3.09305e-09
-7.76184e-09
-8.85593e-09
-5.46544e-09
-1.61262e-09
-3.88724e-10
-1.4087e-09
-2.00819e-09
-1.12257e-09
-6.20155e-10
-1.22366e-09
-1.84275e-09
-1.50647e-09
-6.79674e-10
-4.94116e-10
-1.93678e-09
-4.3217e-09
-4.06992e-09
-1.27787e-09
-1.1969e-09
-2.68015e-09
-2.54523e-09
-1.17418e-09
-8.85514e-11
-4.7008e-10
-6.34473e-10
-9.32437e-09
-1.7128e-08
-4.55437e-09
-1.60979e-09
-1.17091e-08
-1.5146e-08
-9.98543e-09
-4.77696e-09
-4.56855e-09
-1.55185e-08
-4.27944e-08
-7.73208e-08
-1.13886e-07
-1.64275e-07
-2.41438e-07
-3.17558e-07
-2.95059e-07
-1.25716e-07
-9.15404e-09
-1.96684e-07
-2.21435e-07
-8.30408e-09
-9.76614e-08
-2.7669e-07
-2.99368e-07
-1.88794e-07
-8.16069e-08
-2.95389e-08
-1.20479e-08
-7.26939e-09
-7.42563e-09
-1.37421e-08
-4.46877e-08
-1.08029e-07
-8.32642e-08
-3.67121e-09
-1.75483e-08
-9.45806e-09
-3.09979e-10
-2.10123e-08
-1.86639e-08
-3.41541e-09
-7.2393e-09
-2.42066e-08
-1.90008e-08
-2.1218e-09
-5.15644e-09
-2.20622e-08
-2.51825e-08
-9.65129e-09
-7.81035e-10
-3.75539e-09
-5.60461e-09
-6.57382e-09
-1.08157e-08
-1.65484e-08
-2.44753e-08
-3.59615e-08
-4.24807e-08
-5.31034e-08
-1.55367e-07
-5.70773e-08
-7.21017e-08
-2.36403e-07
-1.83906e-07
-5.88078e-08
-7.70312e-09
-5.85087e-09
-1.01413e-08
-1.44995e-08
-2.52135e-08
-5.14253e-08
-9.51754e-08
-8.77295e-08
-2.54524e-08
-8.62798e-09
-2.47525e-08
-3.16995e-08
-1.97165e-08
-2.40157e-08
-1.87359e-08
-6.41461e-09
-4.82826e-09
-1.29952e-08
-7.39499e-09
-1.56553e-09
-1.65671e-08
-3.77824e-08
-6.01261e-08
-6.8705e-08
-5.59028e-08
-5.32898e-08
-8.14122e-08
-1.36442e-07
-1.81006e-07
-1.6662e-07
-8.88295e-08
-2.93205e-08
-4.36516e-08
-4.74663e-08
-4.99067e-08
-3.81644e-07
-1.07434e-07
-4.90003e-08
-4.75838e-08
-2.47611e-08
-1.12333e-07
-1.99622e-07
-2.19913e-07
-1.91949e-07
-1.50511e-07
-1.36705e-07
-1.94215e-07
-2.74198e-07
-1.38211e-07
-7.15423e-09
-2.05358e-09
-2.85862e-08
-2.96117e-08
-2.49657e-08
-1.8384e-08
-7.72955e-09
-2.00356e-09
-4.0535e-09
-4.23707e-09
-1.6372e-09
-6.39171e-09
-1.05794e-08
-1.3451e-08
-2.02961e-08
-1.94361e-08
-1.69491e-08
-2.29211e-08
-3.19361e-08
-3.38394e-08
-2.15392e-08
-3.76167e-09
-1.48928e-08
-7.2736e-08
-8.35745e-08
-3.117e-09
-2.51075e-07
-2.0465e-07
-3.02149e-08
-6.25297e-08
-1.71952e-08
-3.08541e-08
-8.37107e-08
-1.07966e-07
-1.00643e-07
-7.74557e-08
-5.64081e-08
-5.96127e-08
-9.03386e-08
-7.61438e-08
-1.03054e-08
-2.06861e-09
-7.90016e-09
-2.56283e-08
-2.9658e-08
-2.39703e-08
-1.22252e-08
-3.92723e-09
-1.70702e-09
-5.0756e-09
-3.61764e-09
-2.81441e-09
-8.65115e-09
-1.25824e-08
-1.93333e-08
-2.25928e-08
-1.65619e-08
-1.30768e-08
-1.45667e-08
-1.57832e-08
-9.37158e-09
-3.8069e-09
-1.55493e-08
-7.08791e-08
-1.41891e-07
-5.88864e-08
-7.71774e-08
-2.48778e-07
-4.00059e-08
-6.18826e-08
-5.60484e-08
-1.44303e-08
-5.2311e-09
-1.09484e-08
-1.1811e-08
-6.94556e-09
-3.6251e-09
-5.05842e-09
-1.59347e-08
-3.79385e-08
-1.56245e-08
-1.28975e-09
-8.00887e-10
-1.75984e-08
-2.68737e-08
-3.0846e-08
-1.80755e-08
-8.51016e-09
-1.16629e-09
-3.69703e-09
-7.18656e-09
-3.59625e-09
-3.27586e-09
-1.10938e-08
-2.0315e-08
-2.92362e-08
-2.32798e-08
-1.32274e-08
-1.32994e-08
-1.49885e-08
-8.05459e-09
-3.49349e-09
-4.88325e-09
-1.81602e-08
-7.23185e-08
-1.00747e-07
-8.10972e-09
-1.54576e-07
-7.29297e-08
-1.05692e-08
-2.82708e-08
-1.83068e-08
-5.14294e-09
-1.4822e-09
-1.86809e-09
-4.90566e-09
-1.45425e-08
-2.50547e-08
-1.37779e-08
-6.89992e-09
-1.61016e-08
-2.94313e-09
-6.8542e-10
-4.03718e-09
-1.23656e-08
-3.44935e-08
-2.23557e-08
-1.27446e-08
-3.52484e-09
-1.01534e-09
-8.02269e-09
-1.28814e-08
-6.90885e-09
-2.19795e-09
-9.25745e-09
-2.09955e-08
-2.02277e-08
-1.05558e-08
-8.78681e-09
-9.40397e-09
-4.36149e-09
-2.02658e-09
-2.74793e-09