/*--------------------------------*- C++ -*----------------------------------*\
| =========                 |                                                 |
| \\      /  F ield         | OpenFOAM: The Open Source CFD Toolbox           |
|  \\    /   O peration     | Version:  5.0                                   |
|   \\  /    A nd           | Web:      www.OpenFOAM.org                      |
|    \\/     M anipulation  |                                                 |
\*---------------------------------------------------------------------------*/
FoamFile
{
    version     2.0;
    format      ascii;
    class       volScalarField;
    location    "50.4676134421789371";
    object      dissuu;
}
// * * * * * * * * * * * * * * * * * * * * * * * * * * * * * * * * * * * * * //

dimensions      [0 2 -3 0 0 0 0];

internalField   nonuniform List<scalar> 
60000
(
-2.60409e-08
-2.38215e-08
-9.72882e-08
-1.18167e-07
-4.96065e-08
-2.31506e-09
-8.81404e-09
-3.61105e-08
-1.16408e-07
-2.02539e-07
-1.79128e-07
-7.95476e-08
-2.53161e-08
-2.00635e-08
-3.51645e-08
-5.34748e-08
-6.58381e-08
-1.06915e-07
-2.13495e-07
-4.38159e-07
-8.69792e-07
-1.53364e-06
-2.09542e-06
-2.63501e-06
-3.61131e-06
-4.7565e-06
-5.01658e-06
-3.62089e-06
-1.58878e-06
-5.14165e-07
-3.5181e-07
-5.8234e-07
-8.82162e-07
-7.82204e-07
-2.60035e-07
-2.98768e-08
-2.88135e-08
-5.21616e-08
-1.51196e-07
-1.16151e-07
-2.22783e-07
-1.25246e-07
-5.59708e-08
-1.5788e-08
-1.03854e-08
-1.46883e-08
-2.20963e-09
-2.84688e-09
-2.3585e-08
-9.73909e-08
-1.89664e-07
-1.74683e-07
-6.16932e-08
-1.55212e-08
-2.73165e-08
-8.45902e-08
-1.63447e-07
-1.53806e-07
-6.37435e-08
-6.07384e-09
-2.23719e-08
-2.99404e-08
-1.01452e-07
-3.08281e-07
-5.71557e-07
-8.4174e-07
-1.10498e-06
-1.29696e-06
-1.07087e-06
-4.23138e-07
-1.43671e-07
-1.38317e-07
-1.60336e-07
-3.5824e-07
-5.47274e-07
-2.62643e-07
-7.64386e-08
-6.61618e-08
-8.32937e-08
-2.16385e-07
-1.23126e-07
-1.57591e-07
-1.39145e-07
-8.35197e-08
-1.19895e-08
-9.47153e-08
-1.32944e-07
-8.9605e-08
-9.91752e-08
-7.15764e-08
-4.69003e-08
-4.72595e-08
-3.69938e-08
-1.03269e-07
-1.41984e-07
-8.03787e-08
-6.50164e-08
-1.16001e-07
-5.61945e-07
-1.14583e-06
-1.41166e-06
-1.26587e-06
-9.42634e-07
-1.1994e-06
-2.23991e-06
-3.92784e-06
-5.28274e-06
-5.00103e-06
-3.2991e-06
-1.96291e-06
-1.98206e-06
-2.64982e-06
-2.63959e-06
-1.76018e-06
-5.91749e-07
-1.35763e-07
-2.61998e-07
-7.10514e-07
-4.04229e-07
-8.5109e-08
-5.90459e-08
-2.97355e-08
-5.23502e-08
-6.46334e-08
-7.15702e-08
-1.68978e-07
-3.01613e-07
-2.66221e-07
-2.40289e-07
-1.99061e-07
-7.79998e-08
-3.37052e-08
-6.49344e-08
-1.86175e-07
-2.46177e-07
-1.31743e-07
-4.95562e-08
-1.06071e-07
-5.58989e-07
-1.18101e-06
-1.0621e-06
-6.7202e-07
-2.97185e-07
-2.41166e-07
-5.39541e-07
-1.11652e-06
-1.5246e-06
-1.44022e-06
-1.11349e-06
-9.87709e-07
-1.24225e-06
-1.76932e-06
-2.084e-06
-1.89411e-06
-1.19809e-06
-5.69339e-07
-4.83173e-07
-8.08508e-07
-8.49154e-07
-3.2148e-07
-3.20007e-08
-7.42089e-09
-1.44322e-08
-3.00615e-08
-4.3806e-08
-6.21615e-08
-1.28921e-07
-2.05351e-07
-2.33202e-07
-2.34485e-07
-9.47186e-08
-7.18913e-09
-1.28052e-08
-1.75926e-08
-6.62865e-08
-7.49779e-08
-6.11855e-08
-2.91948e-08
-5.81447e-08
-5.34456e-07
-7.47274e-07
-4.04532e-07
-9.95705e-08
-7.48554e-09
-2.04408e-08
-1.15217e-07
-1.22618e-07
-4.59846e-08
-1.00992e-08
-7.00196e-08
-7.22453e-08
-8.06729e-08
-3.07613e-07
-5.91237e-07
-5.43787e-07
-1.75752e-07
-9.93552e-08
-2.16201e-07
-4.02877e-07
-3.0223e-07
-8.88941e-08
-3.35896e-09
-5.59281e-08
-8.2204e-08
-9.52333e-08
-8.72511e-08
-3.89491e-08
-3.57249e-08
-1.44506e-07
-2.98357e-07
-2.54105e-07
-4.19822e-08
-8.60022e-09
-5.47494e-08
-1.06477e-07
-1.55023e-07
-1.47775e-07
-1.24178e-07
-7.32365e-08
-1.00253e-07
-6.1154e-07
-5.02106e-07
-1.56483e-07
-1.35393e-08
-2.12995e-08
-3.46122e-08
-1.27901e-08
-7.08386e-10
-1.43179e-08
-1.39729e-07
-4.16279e-07
-4.83407e-07
-1.96029e-07
-6.55637e-08
-2.30285e-07
-1.70449e-07
-5.40498e-08
-1.97547e-07
-1.92916e-07
-2.10777e-07
-1.42223e-07
-4.64218e-08
-2.78255e-09
-4.27869e-08
-1.15297e-07
-1.97035e-07
-1.85678e-07
-6.31817e-08
-5.72731e-09
-2.08457e-07
-4.61185e-07
-2.45466e-07
-2.14694e-08
-2.99506e-08
-1.48124e-07
-2.19852e-07
-1.04794e-07
-6.33943e-08
-1.27676e-07
-6.09718e-08
-2.30788e-07
-5.95735e-07
-2.83875e-07
-7.69434e-08
-4.46535e-08
-1.229e-08
-4.5068e-10
-4.44335e-10
-1.54221e-09
-1.69998e-08
-1.17973e-07
-3.36357e-07
-4.61343e-07
-2.37631e-07
-2.23245e-08
-1.10013e-07
-8.62833e-08
-9.29046e-08
-1.76121e-07
-1.48826e-07
-1.10448e-07
-1.07194e-07
-5.37067e-08
-2.0617e-08
-3.94022e-08
-1.22416e-07
-2.33215e-07
-2.4359e-07
-1.28636e-07
-2.31655e-08
-3.29534e-07
-4.81574e-07
-1.24793e-07
-3.86268e-08
-1.60396e-07
-1.60643e-07
-2.60666e-08
-1.55829e-08
-6.43463e-08
-2.11763e-07
-1.46283e-08
-3.40074e-07
-4.04966e-07
-1.53385e-07
-4.95859e-08
-5.71476e-09
-7.0713e-09
-2.54591e-09
-1.75318e-09
-5.15857e-09
-1.67815e-08
-7.61561e-08
-2.01409e-07
-3.22027e-07
-2.1157e-07
-1.2325e-08
-4.16618e-08
-6.44571e-08
-8.30696e-08
-1.13973e-07
-8.47971e-08
-9.33092e-08
-6.78311e-08
-3.4538e-08
-3.29891e-08
-4.50977e-08
-7.51063e-08
-1.28479e-07
-2.06174e-07
-1.91602e-07
-2.57253e-08
-3.74173e-07
-2.85428e-07
-8.55516e-08
-9.5449e-08
-2.67123e-08
-1.56142e-08
-2.48576e-08
-1.22634e-08
-1.5698e-07
-2.3366e-07
-2.29444e-08
-3.30042e-07
-1.74306e-07
-4.92759e-08
-1.44885e-08
-9.03698e-09
-1.32295e-09
-1.76825e-09
-5.50672e-09
-8.8766e-09
-1.40929e-08
-3.53187e-08
-8.73974e-08
-1.57525e-07
-1.22237e-07
-1.59478e-08
-2.2633e-08
-3.81818e-08
-5.00327e-08
-5.01354e-08
-8.22798e-08
-2.83535e-08
-1.222e-08
-5.13171e-08
-6.00928e-08
-3.54439e-08
-1.10178e-08
-3.88966e-08
-1.8135e-07
-1.72214e-07
-2.96588e-08
-3.28651e-07
-1.68028e-07
-3.6522e-08
-3.8369e-09
-2.5104e-08
-1.62835e-08
-4.85857e-09
-3.27184e-08
-2.35538e-07
-8.99641e-08
-8.71738e-08
-1.34213e-07
-4.40659e-08
-1.78084e-08
-5.68988e-09
-3.41876e-10
-1.4751e-09
-4.15772e-09
-7.27038e-09
-9.99325e-09
-1.15155e-08
-1.43376e-08
-2.37993e-08
-4.16666e-08
-3.63836e-08
-9.94991e-09
-5.4751e-09
-1.16907e-08
-2.75356e-08
-8.20269e-08
-3.70019e-08
-1.27124e-08
-7.0937e-08
-9.02813e-08
-5.6733e-08
-1.90845e-08
-8.78573e-10
-3.0091e-08
-1.61242e-07
-7.84246e-08
-1.01736e-07
-2.29669e-07
-7.22361e-08
-1.52045e-08
-1.18246e-08
-6.67531e-09
-2.59678e-09
-2.20633e-09
-6.42648e-08
-1.45065e-07
-1.19265e-08
-3.71031e-08
-2.76179e-08
-1.51302e-08
-8.71221e-09
-5.37682e-09
-3.19465e-09
-3.08307e-09
-3.8897e-09
-6.28226e-09
-1.09375e-08
-1.15604e-08
-7.40447e-09
-4.07526e-09
-5.6142e-09
-9.48609e-09
-6.76782e-09
-4.34734e-09
-1.45239e-08
-7.02188e-08
-5.1819e-08
-8.90314e-09
-6.67741e-08
-8.168e-08
-4.63036e-08
-1.90828e-08
-5.99765e-09
-2.18318e-09
-3.78002e-08
-1.05249e-07
-8.79395e-09
-1.27123e-07
-9.14174e-08
-2.30751e-08
-7.02778e-09
-4.82184e-09
-3.2199e-09
-2.45881e-09
-8.87408e-09
-5.95258e-08
-6.90575e-08
-3.30175e-08
-1.46248e-08
-1.76168e-08
-2.23588e-08
-1.10983e-08
-3.93614e-09
-3.38679e-09
-4.3637e-09
-1.89603e-09
-5.47321e-09
-1.59445e-08
-1.34032e-08
-5.15793e-09
-8.29154e-10
-1.93905e-09
-3.1439e-09
-2.4533e-09
-3.20845e-09
-2.86726e-08
-2.68153e-08
-4.29751e-09
-3.83008e-08
-4.26586e-08
-2.25744e-08
-9.85267e-09
-4.32815e-09
-2.53868e-09
-1.18732e-08
-4.96936e-08
-2.25898e-08
-3.29811e-08
-7.58561e-08
-3.729e-08
-9.70781e-09
-2.25218e-09
-8.68172e-09
-5.62305e-09
-5.73964e-09
-1.7763e-08
-5.91903e-08
-3.96382e-08
-2.37488e-09
-2.40881e-08
-1.86196e-08
-5.09134e-09
-1.44608e-09
-2.57511e-09
-9.62711e-09
-1.33834e-08
-1.34239e-09
-1.07313e-08
-2.47585e-08
-1.48299e-08
-4.26361e-09
-6.86589e-10
-1.76123e-09
-1.21804e-09
-2.50137e-09
-2.61327e-09
-9.6656e-10
-4.10549e-09
-1.16383e-08
-9.82631e-09
-3.68324e-09
-2.15101e-09
-2.99469e-09
-4.50478e-09
-1.06812e-08
-2.71413e-08
-2.02386e-08
-6.39611e-09
-4.84983e-08
-3.37496e-08
-4.6779e-09
-3.02192e-09
-7.94776e-09
-7.01328e-09
-4.60328e-09
-1.06764e-08
-9.82916e-09
-1.65294e-09
-5.47287e-09
-4.54092e-09
-3.3186e-09
-3.10613e-09
-2.20785e-09
-2.4289e-09
-1.0678e-08
-2.84996e-08
-2.6012e-08
-2.91851e-09
-2.26651e-08
-2.53523e-08
-1.06522e-08
-1.55398e-09
-1.05191e-09
-2.40196e-09
-2.52865e-09
-2.72252e-09
-4.1399e-09
-4.37079e-09
-1.61578e-09
-8.68909e-10
-3.47319e-09
-2.99482e-09
-1.28728e-09
-3.28554e-09
-1.13037e-08
-1.95236e-08
-1.61102e-08
-1.27157e-09
-1.8147e-08
-1.4513e-08
-4.46729e-09
-1.8091e-09
-8.81875e-10
-3.082e-09
-6.81198e-09
-1.07044e-08
-6.52771e-09
-2.87807e-09
-1.72214e-09
-9.14996e-09
-1.04694e-08
-9.04995e-09
-1.01466e-08
-8.76396e-09
-9.61811e-09
-2.22493e-08
-4.23827e-08
-2.57902e-08
-9.57985e-09
-2.90999e-08
-1.83579e-08
-6.02973e-09
-7.01748e-10
-1.88912e-09
-2.39679e-09
-2.52759e-09
-4.53561e-09
-4.58947e-09
-1.83555e-09
-1.64423e-10
-1.62915e-09
-3.31549e-09
-1.56691e-09
-8.83636e-10
-9.47967e-09
-1.91531e-08
-1.22956e-08
-3.55969e-09
-1.14927e-08
-1.09571e-08
-3.44039e-09
-3.13181e-10
-2.87502e-09
-3.60957e-09
-1.3699e-09
-1.76322e-08
-3.24357e-08
-3.58042e-08
-5.07775e-08
-4.63695e-08
-3.82808e-08
-5.38579e-08
-5.07438e-08
-2.69974e-08
-1.20635e-08
-1.28037e-08
-2.8668e-08
-4.1829e-08
-1.52846e-08
-1.61688e-08
-2.83026e-08
-1.42383e-08
-3.54662e-09
-1.00785e-09
-1.27866e-09
-1.89485e-09
-2.06551e-09
-4.46297e-09
-5.70647e-09
-2.75627e-09
-1.08246e-09
-2.05853e-09
-1.83221e-09
-6.33545e-10
-5.71846e-09
-1.74253e-08
-1.23236e-08
-4.52775e-09
-1.42066e-08
-1.12294e-08
-2.52562e-09
-5.11379e-10
-1.80661e-09
-2.0277e-09
-8.61371e-10
-3.36804e-09
-3.22839e-08
-6.44344e-08
-6.68204e-08
-6.37242e-08
-7.74852e-08
-6.38681e-08
-2.89228e-08
-1.09501e-08
-6.36314e-09
-8.09664e-09
-1.96972e-08
-3.4914e-08
-3.20788e-08
-5.46902e-09
-1.86094e-08
-2.45394e-08
-1.02649e-08
-1.63807e-09
-1.60012e-09
-1.6277e-09
-5.95786e-09
-8.72045e-09
-4.83373e-09
-4.3594e-09
-7.84201e-09
-7.08642e-09
-3.63657e-09
-1.90992e-09
-3.42387e-09
-7.42268e-09
-6.68514e-09
-4.7872e-09
-1.09907e-08
-8.31127e-09
-1.85025e-09
-2.91622e-10
-2.62791e-09
-1.77385e-09
-6.62428e-10
-1.77507e-09
-3.03633e-09
-4.59188e-09
-2.24676e-08
-4.4313e-08
-3.35675e-08
-2.36601e-09
-3.11753e-08
-4.23705e-08
-1.98936e-08
-1.40542e-09
-2.28931e-08
-4.59296e-08
-3.86694e-08
-2.23767e-08
-1.53574e-09
-1.1031e-08
-1.47639e-08
-6.63364e-09
-1.60282e-08
-1.89713e-08
-2.12375e-08
-9.97109e-09
-7.86675e-09
-1.26122e-08
-7.54529e-09
-4.80727e-09
-3.98417e-09
-3.09908e-09
-3.22058e-09
-1.65222e-09
-5.55436e-10
-4.57512e-09
-6.29243e-09
-3.00849e-09
-1.08516e-09
-3.13488e-09
-5.18244e-09
-1.99254e-09
-1.27104e-09
-1.0436e-08
-2.21391e-08
-3.79377e-08
-4.89068e-08
-1.76401e-08
-8.63525e-09
-6.28987e-08
-5.80857e-08
-3.05817e-08
-1.82763e-08
-1.58521e-08
-7.0341e-09
-2.09319e-08
-4.13384e-08
-3.18117e-08
-1.73153e-08
-2.33152e-09
-2.76183e-09
-1.0888e-08
-8.64373e-09
-2.07147e-08
-2.67298e-08
-2.4927e-08
-1.12166e-08
-2.64723e-09
-4.23644e-09
-8.52153e-09
-7.64252e-09
-3.52508e-09
-2.44448e-09
-3.49689e-09
-5.53019e-09
-6.36243e-09
-4.67731e-09
-4.05586e-09
-4.19356e-09
-3.04382e-09
-2.25153e-09
-2.31383e-09
-1.14087e-09
-2.68677e-09
-1.0076e-08
-1.01408e-08
-1.94832e-09
-2.9679e-09
-1.13965e-08
-7.49819e-09
-1.26008e-09
-2.14721e-09
-1.65639e-09
-9.55123e-09
-3.03243e-08
-2.78128e-08
-1.28889e-08
-1.85423e-08
-1.55772e-08
-9.24358e-09
-4.38658e-09
-2.65273e-09
-5.16487e-09
-3.88627e-09
-8.41483e-09
-1.22713e-08
-6.07577e-09
-5.25876e-10
-5.22825e-10
-1.85866e-09
-2.6327e-09
-1.34874e-09
-2.66083e-09
-9.43681e-09
-1.29564e-08
-6.16885e-09
-1.45069e-09
-6.38989e-09
-9.12617e-09
-5.45229e-09
-1.07093e-09
-4.90022e-10
-1.88488e-09
-2.42535e-09
-1.78938e-09
-4.50232e-10
-1.30194e-10
-9.76921e-10
-9.88812e-10
-1.23156e-09
-2.70094e-09
-4.53742e-09
-3.64181e-09
-7.3208e-10
-8.00432e-09
-2.90482e-08
-2.80923e-08
-7.68016e-09
-4.12691e-09
-6.78794e-09
-7.46835e-09
-6.51345e-09
-1.39932e-09
-1.26989e-09
-1.96714e-09
-2.34958e-09
-2.08024e-09
-1.65389e-09
-1.26569e-09
-7.7979e-10
-7.68772e-10
-2.06176e-09
-4.38418e-09
-6.9021e-09
-5.62385e-09
-1.81423e-09
-1.87838e-09
-5.87828e-09
-8.07265e-09
-7.16487e-09
-5.16609e-09
-5.14551e-09
-5.64119e-09
-3.22289e-09
-8.21593e-10
-1.9692e-09
-5.02759e-09
-6.58911e-09
-6.42101e-09
-5.16157e-09
-3.37411e-09
-1.792e-09
-1.02562e-09
-1.63253e-09
-3.24959e-09
-6.28962e-09
-9.69554e-09
-5.28611e-09
-7.54438e-10
-4.01759e-10
-1.1239e-09
-1.71781e-09
-2.29313e-09
-1.71001e-09
-4.34711e-10
-1.90579e-10
-1.41313e-09
-3.95216e-09
-5.24493e-09
-3.48847e-09
-3.42152e-09
-7.11265e-09
-6.43041e-09
-2.10229e-09
-4.53468e-10
-1.45672e-09
-1.53782e-09
-4.41137e-10
-2.35491e-10
-9.53525e-10
-1.03317e-09
-8.9109e-10
-8.50167e-10
-1.97783e-09
-4.50118e-09
-5.7237e-09
-4.62077e-09
-2.19504e-09
-5.61972e-10
-4.61794e-10
-1.63482e-09
-2.44046e-09
-2.21674e-09
-2.96447e-09
-4.10721e-09
-3.44324e-09
-2.13173e-09
-1.8856e-09
-2.08948e-09
-1.90489e-09
-1.63113e-09
-1.83392e-09
-1.81369e-09
-2.71223e-09
-2.7039e-09
-1.21973e-09
-8.82259e-10
-3.19952e-09
-5.45292e-09
-4.06063e-09
-6.18819e-10
-3.75789e-09
-8.98372e-09
-6.85175e-09
-2.56679e-09
-6.14389e-10
-7.75636e-10
-2.10533e-09
-2.56085e-09
-1.91757e-09
-1.36937e-09
-1.24708e-09
-1.49824e-09
-1.79211e-09
-1.67206e-09
-1.74302e-09
-2.46799e-09
-2.49965e-09
-1.32352e-09
-6.32831e-10
-9.86122e-10
-1.2288e-09
-1.27155e-09
-1.8457e-09
-2.65345e-09
-1.91468e-09
-9.90539e-10
-9.96337e-10
-1.09012e-09
-1.04112e-09
-1.04039e-09
-1.2306e-09
-7.78932e-10
-7.54177e-10
-5.52002e-10
-1.36283e-09
-2.48814e-09
-1.98335e-09
-1.43395e-09
-2.87092e-09
-4.51058e-09
-4.71955e-09
-3.54108e-09
-1.33578e-09
-4.69773e-10
-1.41588e-09
-2.43742e-09
-2.33719e-09
-1.37417e-09
-7.50526e-10
-5.70701e-10
-4.23127e-10
-2.74727e-10
-2.09404e-10
-4.00533e-10
-1.09149e-09
-1.59836e-09
-1.2812e-09
-6.97166e-10
-7.5337e-10
-1.11494e-09
-1.37595e-09
-1.2127e-09
-5.47995e-10
-2.81844e-10
-8.86902e-10
-1.29339e-09
-8.45231e-10
-3.47746e-10
-3.09252e-10
-4.91158e-10
-6.52047e-10
-9.01096e-09
-5.30898e-09
-8.33385e-09
-4.5541e-08
-1.51347e-07
-2.38064e-07
-2.09475e-07
-1.27752e-07
-9.62158e-08
-1.44376e-07
-2.50462e-07
-4.00287e-07
-6.14521e-07
-9.03674e-07
-1.22799e-06
-1.51507e-06
-1.70518e-06
-1.74912e-06
-1.5698e-06
-1.03393e-06
-5.72214e-07
-6.80589e-07
-1.314e-06
-1.82076e-06
-2.07679e-06
-2.22516e-06
-2.03813e-06
-1.58799e-06
-1.36066e-06
-1.68889e-06
-2.53055e-06
-3.32246e-06
-3.27284e-06
-2.07074e-06
-4.18128e-07
-2.84356e-07
-8.683e-07
-2.35499e-07
-7.27603e-09
-5.69037e-09
-2.86055e-09
-1.70257e-09
-6.1046e-09
-1.94942e-08
-3.92126e-08
-7.54344e-08
-1.09797e-07
-7.80898e-08
-1.72889e-08
-3.09509e-09
-1.11311e-08
-3.23124e-08
-5.89667e-08
-1.02976e-07
-1.95985e-07
-3.4616e-07
-5.05929e-07
-6.38499e-07
-7.31377e-07
-5.17531e-07
-3.1957e-08
-1.8645e-07
-1.34931e-07
-1.26844e-07
-5.56992e-07
-1.06024e-06
-1.27053e-06
-1.00908e-06
-5.33271e-07
-2.80563e-07
-2.84695e-07
-4.02949e-07
-6.10719e-07
-8.98279e-07
-1.16351e-06
-4.89433e-07
-1.58804e-07
-4.68648e-07
-8.83572e-08
-1.0815e-09
-7.8049e-09
-4.41792e-09
-3.27195e-09
-1.87784e-08
-7.11574e-08
-1.3051e-07
-1.18355e-07
-9.11683e-08
-1.09036e-07
-1.76575e-07
-1.73907e-07
-1.50305e-07
-2.04663e-07
-2.96638e-07
-3.7118e-07
-5.31783e-07
-9.64054e-07
-1.62801e-06
-2.14393e-06
-2.15629e-06
-2.37878e-06
-3.54769e-06
-3.30312e-06
-1.61921e-06
-1.14404e-06
-1.50308e-06
-2.05177e-06
-2.35824e-06
-2.58191e-06
-3.15068e-06
-3.98321e-06
-4.49627e-06
-4.3095e-06
-3.22947e-06
-1.32287e-06
-2.30134e-07
-1.00691e-07
-7.26298e-07
-5.18091e-07
-4.34935e-08
-1.80431e-08
-1.77471e-09
-7.4505e-09
-2.38966e-08
-5.55215e-08
-1.22231e-07
-1.86424e-07
-1.83856e-07
-1.46664e-07
-1.63129e-07
-1.73295e-07
-1.13612e-07
-9.53513e-08
-1.09003e-07
-1.07472e-07
-1.41032e-07
-3.42321e-07
-6.83006e-07
-9.55446e-07
-1.15271e-06
-1.44395e-06
-2.04319e-06
-1.92407e-06
-7.95073e-07
-3.45081e-07
-4.73001e-07
-7.94622e-07
-1.01998e-06
-1.1901e-06
-1.4339e-06
-1.68516e-06
-1.81514e-06
-1.83516e-06
-1.71571e-06
-1.40472e-06
-9.60059e-07
-4.45854e-07
-7.58766e-07
-1.18574e-06
-3.53081e-07
-1.21048e-07
-9.03814e-10
-1.85164e-09
-4.70229e-09
-1.22745e-08
-2.1495e-08
-5.13343e-08
-9.15662e-08
-6.14839e-08
-2.87662e-08
-3.90294e-08
-2.46808e-08
-6.63601e-09
-2.17389e-08
-2.95345e-08
-5.81217e-09
-1.76037e-08
-5.62409e-08
-5.52759e-08
-8.29664e-08
-1.21507e-07
-3.78343e-07
-7.26049e-07
-3.22261e-07
-3.98274e-08
-1.30156e-08
-2.8003e-08
-1.58985e-08
-5.05024e-09
-2.86345e-09
-3.42823e-08
-8.50362e-08
-1.18584e-07
-1.4965e-07
-1.27877e-07
-6.81564e-08
-7.11639e-08
-2.28813e-07
-9.71887e-07
-7.98232e-07
-4.39098e-07
-2.51236e-08
-9.53945e-09
-2.63084e-08
-4.62912e-08
-5.83304e-08
-4.12809e-08
-5.02946e-08
-8.94153e-08
-3.24977e-08
-5.29722e-09
-4.78941e-09
-5.92417e-09
-4.1204e-08
-5.64456e-08
-1.0451e-08
-1.876e-08
-2.39324e-08
-6.47647e-09
-8.15397e-08
-1.0424e-07
-4.2809e-08
-3.03927e-07
-2.5819e-07
-4.90911e-08
-1.47021e-08
-1.00004e-08
-1.90886e-09
-3.92383e-08
-1.0578e-07
-1.4476e-07
-1.45618e-07
-1.0737e-07
-4.17747e-08
-1.33098e-08
-2.61502e-08
-1.93253e-07
-1.31505e-07
-2.18001e-07
-8.62353e-07
-7.72573e-07
-2.24644e-07
-4.77425e-09
-1.94326e-08
-5.22405e-08
-8.88024e-08
-1.09954e-07
-5.78551e-08
-9.35458e-08
-1.45172e-07
-3.55633e-08
-8.0781e-09
-1.4089e-08
-4.08484e-08
-2.68266e-08
-8.50761e-09
-5.09649e-08
-3.16451e-08
-4.72768e-09
-5.35276e-08
-1.27584e-07
-2.34487e-08
-1.25109e-07
-2.09019e-07
-8.3968e-08
-4.46261e-08
-2.24954e-08
-2.20967e-09
-9.28515e-09
-5.05552e-08
-1.01344e-07
-1.39449e-07
-1.67115e-07
-1.48933e-07
-5.62423e-08
-1.19377e-08
-8.20623e-08
-3.26604e-07
-1.62724e-07
-3.6091e-07
-5.67978e-07
-5.97148e-07
-1.04651e-07
-4.65158e-09
-2.65739e-08
-7.85427e-08
-1.47776e-07
-1.66085e-07
-5.04271e-08
-1.90353e-07
-1.87258e-07
-4.27781e-08
-3.52362e-08
-3.91992e-08
-5.38429e-09
-4.86778e-08
-6.91839e-08
-2.28409e-08
-3.49757e-09
-2.68963e-08
-9.67972e-08
-3.99545e-08
-4.23056e-08
-1.35508e-07
-8.57372e-08
-4.71633e-08
-1.40571e-08
-1.80473e-09
-1.89633e-09
-6.41966e-09
-1.88544e-08
-4.41371e-08
-8.616e-08
-1.21769e-07
-1.12927e-07
-4.38498e-08
-1.95184e-08
-1.58211e-07
-3.3565e-07
-1.90168e-07
-2.7523e-07
-6.84299e-07
-3.34769e-07
-3.433e-08
-2.0318e-08
-4.76962e-08
-6.47538e-08
-1.18783e-07
-1.43481e-07
-4.0077e-08
-3.01763e-07
-1.9642e-07
-5.12319e-08
-1.86775e-08
-7.3626e-09
-6.83135e-08
-5.14288e-08
-1.20929e-08
-4.11742e-10
-1.50962e-08
-4.74046e-08
-4.99475e-08
-1.49357e-08
-7.69178e-08
-6.19682e-08
-3.08843e-08
-3.98042e-09
-2.21742e-09
-1.67563e-09
-1.54087e-09
-2.06086e-09
-3.65798e-09
-1.25551e-08
-3.8292e-08
-6.15719e-08
-5.76925e-08
-2.64307e-08
-4.35168e-08
-2.04811e-07
-3.2391e-07
-2.78709e-07
-3.7166e-07
-3.79634e-07
-6.98615e-08
-3.25004e-08
-2.13765e-08
-4.9595e-09
-1.32372e-08
-7.65074e-08
-9.92621e-08
-7.60466e-08
-3.5556e-07
-1.73269e-07
-2.52376e-08
-1.72197e-08
-4.14393e-08
-2.53089e-08
-9.58973e-09
-1.04194e-09
-8.92742e-09
-1.60002e-08
-3.13794e-08
-1.33744e-08
-3.54239e-08
-4.1379e-08
-1.27158e-08
-4.43538e-09
-3.29347e-09
-1.33757e-09
-2.58707e-09
-4.45735e-09
-3.4158e-09
-1.70431e-09
-8.28936e-09
-1.93841e-08
-2.19652e-08
-1.73935e-08
-1.43488e-08
-6.3996e-08
-2.3548e-07
-2.68032e-07
-2.1401e-07
-1.82835e-07
-1.01772e-07
-3.13233e-08
-1.44497e-08
-2.58307e-08
-2.75758e-08
-9.15148e-09
-6.21772e-08
-5.26415e-08
-1.58582e-07
-2.91115e-07
-9.87697e-08
-1.4833e-08
-2.49486e-08
-2.34795e-08
-6.6258e-09
-1.8948e-09
-4.07552e-09
-9.65247e-09
-9.61449e-09
-1.18213e-08
-7.89902e-09
-1.3531e-08
-8.35029e-09
-6.02647e-09
-1.62174e-09
-8.16824e-10
-3.54118e-09
-9.57255e-09
-1.40855e-08
-6.21273e-09
-3.80697e-09
-1.23132e-08
-1.11543e-08
-5.14008e-09
-2.15556e-09
-9.83682e-09
-8.24541e-08
-1.67729e-07
-3.31778e-07
-1.39837e-07
-1.04509e-07
-6.32794e-08
-5.90609e-08
-5.67999e-08
-3.5576e-08
-1.57232e-08
-4.77847e-09
-3.28089e-08
-4.45958e-08
-1.67015e-07
-9.85178e-08
-8.05026e-09
-1.35318e-08
-1.35751e-08
-2.3576e-09
-2.29591e-09
-4.17833e-09
-9.2702e-09
-1.10845e-08
-1.2178e-08
-1.2548e-08
-1.83373e-08
-9.10913e-09
-3.10237e-09
-1.27847e-09
-7.29952e-10
-2.26456e-09
-1.18785e-08
-3.40305e-08
-3.12622e-08
-4.67437e-09
-1.02346e-08
-1.58306e-08
-7.11531e-09
-4.89445e-10
-7.27947e-10
-1.10219e-08
-5.42115e-08
-3.22038e-07
-2.72457e-07
-5.40543e-08
-1.09957e-07
-1.40018e-07
-7.23053e-08
-1.8234e-08
-6.79602e-09
-6.39798e-09
-2.37418e-09
-1.72967e-08
-7.42211e-08
-6.81401e-08
-1.60634e-08
-3.47235e-09
-5.2696e-09
-1.52152e-09
-3.21792e-09
-1.00818e-08
-1.16714e-08
-1.36909e-08
-1.7192e-08
-3.16865e-08
-1.1112e-08
-5.38393e-09
-5.01286e-09
-7.69401e-10
-4.84275e-09
-2.57738e-09
-7.68428e-09
-4.71907e-08
-7.68666e-08
-3.22944e-08
-2.35322e-09
-1.89195e-08
-1.74165e-08
-5.62953e-09
-9.65013e-10
-3.77269e-09
-7.09555e-09
-1.00226e-07
-1.38877e-07
-8.60334e-09
-7.36724e-08
-9.94118e-08
-3.79839e-08
-2.72648e-09
-5.87056e-09
-1.66878e-08
-1.27802e-08
-4.2353e-09
-4.00635e-08
-5.92593e-08
-3.00848e-08
-4.54692e-09
-1.78099e-09
-2.76523e-09
-5.97492e-09
-1.47759e-08
-1.48775e-08
-1.10735e-08
-1.00854e-08
-5.68199e-09
-2.5337e-09
-1.91666e-09
-5.85853e-09
-1.67555e-08
-1.5325e-08
-8.53412e-09
-6.04354e-09
-2.61927e-08
-7.96005e-08
-8.08961e-08
-1.24029e-08
-7.21959e-09
-1.72205e-08
-1.25027e-08
-1.99245e-09
-2.44809e-09
-1.5109e-09
-5.35069e-09
-5.665e-09
-1.28368e-09
-1.25551e-08
-1.31021e-08
-6.26197e-09
-1.3871e-09
-4.95511e-09
-1.92532e-08
-2.3138e-08
-8.00821e-09
-1.92965e-08
-5.03096e-08
-3.61183e-08
-7.04569e-09
-2.02834e-09
-8.7725e-09
-5.55197e-09
-9.75635e-09
-1.79672e-08
-1.25252e-08
-6.91072e-09
-3.38896e-09
-4.22146e-09
-2.30568e-08
-3.98691e-08
-2.17895e-08
-2.10067e-08
-2.89953e-08
-1.32501e-08
-4.14315e-09
-3.41701e-08
-8.23994e-08
-4.73793e-08
-1.08599e-09
-1.1446e-08
-1.09052e-08
-6.25336e-09
-9.83432e-10
-3.09661e-10
-8.72258e-10
-1.30639e-09
-1.09342e-09
-4.91731e-10
-5.0503e-10
-1.07281e-09
-7.72285e-10
-8.20375e-10
-8.36647e-09
-1.60052e-08
-8.14988e-09
-8.27641e-09
-2.88207e-08
-2.4032e-08
-6.71209e-09
-7.59638e-09
-5.85321e-09
-1.61706e-09
-4.38544e-09
-1.119e-08
-2.54665e-08
-2.6975e-08
-2.99588e-08
-5.73663e-08
-7.1269e-08
-3.90029e-08
-5.12068e-08
-9.20615e-08
-7.32202e-08
-2.5149e-08
-5.26513e-10
-1.4482e-08
-5.40117e-08
-6.73468e-08
-1.55892e-08
-3.78024e-09
-1.28601e-08
-8.63953e-09
-3.49671e-09
-2.88516e-09
-6.20721e-10
-1.5823e-09
-2.30344e-09
-2.05327e-09
-9.46979e-10
-5.91888e-10
-4.97301e-10
-1.26732e-10
-4.50354e-09
-1.07726e-08
-3.80284e-09
-4.19044e-09
-1.72099e-08
-1.69823e-08
-9.302e-09
-3.95752e-09
-2.00153e-09
-5.65479e-09
-6.02419e-09
-2.85288e-09
-1.56951e-08
-5.04377e-08
-7.86349e-08
-6.22195e-08
-2.09629e-08
-5.45041e-08
-1.0341e-07
-7.23601e-08
-2.8434e-08
-1.23877e-08
-6.63104e-09
-6.11896e-10
-2.22855e-08
-5.48065e-08
-4.08261e-08
-3.30111e-09
-7.30233e-09
-1.26163e-08
-8.57138e-09
-1.25102e-08
-6.06747e-09
-3.62724e-09
-5.98016e-09
-6.34397e-09
-2.86492e-09
-1.2154e-09
-8.1829e-10
-2.26041e-10
-2.76331e-09
-9.72279e-09
-7.75861e-09
-7.00889e-09
-2.09554e-08
-1.60543e-08
-3.411e-09
-5.16623e-09
-1.06489e-08
-6.99143e-09
-1.97379e-09
-2.78352e-09
-1.13799e-08
-2.7629e-08
-2.60671e-08
-1.3908e-09
-2.93061e-08
-5.70236e-08
-3.46686e-08
-5.07955e-09
-1.32572e-08
-8.10002e-09
-3.39642e-09
-1.59365e-08
-8.53297e-09
-2.68131e-08
-4.5976e-08
-2.52096e-08
-1.60332e-09
-6.71971e-09
-1.45636e-08
-1.13425e-08
-1.27144e-08
-1.3287e-08
-1.26447e-08
-7.54106e-09
-3.26666e-09
-1.84171e-09
-8.96609e-10
-1.06262e-09
-2.53246e-09
-5.0439e-09
-1.16453e-08
-1.79718e-08
-1.52424e-08
-8.09714e-09
-1.18803e-08
-1.38827e-08
-8.71379e-09
-3.26334e-09
-1.64561e-09
-2.2052e-09
-2.66467e-09
-1.28544e-09
-2.64222e-09
-2.46088e-08
-4.1736e-08
-2.21361e-08
-4.31891e-09
-3.62381e-08
-3.85289e-08
-2.55542e-08
-8.68952e-09
-1.38897e-08
-3.0104e-08
-1.40253e-08
-2.17996e-08
-2.31721e-08
-8.51769e-09
-5.42096e-10
-5.36162e-09
-2.64378e-09
-5.98929e-09
-1.01183e-08
-1.06284e-08
-6.41986e-09
-1.39941e-09
-4.74641e-11
-9.93315e-10
-2.22316e-09
-2.41071e-09
-2.22858e-09
-5.36007e-09
-6.86921e-09
-3.3967e-09
-8.32665e-09
-9.82575e-09
-4.38338e-09
-1.20282e-09
-8.15287e-10
-3.45434e-10
-1.23399e-10
-1.95748e-09
-6.6646e-09
-1.35817e-08
-1.40917e-08
-3.0795e-09
-4.59087e-09
-1.47425e-08
-1.10311e-08
-5.25941e-09
-1.0319e-08
-2.76643e-08
-2.29427e-08
-2.6423e-09
-1.26154e-08
-1.0568e-08
-8.26932e-09
-3.06402e-09
-3.5046e-10
-1.10227e-09
-6.32414e-09
-3.69823e-09
-1.39179e-09
-2.07393e-09
-2.93636e-09
-2.25947e-09
-1.58356e-09
-2.11398e-09
-2.83002e-09
-1.5936e-09
-6.73523e-10
-3.21958e-09
-5.82896e-09
-5.95817e-09
-5.63635e-09
-4.60037e-09
-3.32039e-09
-2.10733e-09
-1.63378e-09
-1.95828e-09
-1.97727e-09
-2.40023e-09
-4.00387e-09
-3.62954e-09
-1.70852e-09
-4.09772e-09
-7.37013e-09
-6.66499e-09
-4.11579e-09
-1.52327e-09
-1.3688e-09
-1.22381e-08
-3.39583e-08
-3.90034e-08
-1.44831e-08
-1.15248e-08
-6.88104e-09
-3.00827e-09
-5.02642e-09
-6.90796e-09
-3.83348e-09
-4.86631e-09
-4.89287e-09
-3.08351e-09
-1.49117e-09
-1.9456e-09
-3.37263e-09
-3.90895e-09
-2.43033e-09
-7.91687e-10
-1.50607e-09
-5.81229e-09
-7.58227e-09
-3.8199e-09
-6.15966e-10
-1.72497e-09
-4.26876e-09
-3.29368e-09
-2.02204e-09
-3.35966e-09
-2.47296e-09
-1.90484e-10
-1.2682e-09
-5.22929e-09
-8.86009e-09
-9.81411e-09
-6.87218e-09
-2.40005e-09
-5.45867e-10
-2.3133e-09
-5.72653e-09
-7.23679e-09
-8.86938e-09
-1.84659e-08
-2.09009e-08
-9.37199e-09
-2.04912e-09
-1.41854e-09
-2.11909e-09
-2.84933e-09
-1.8978e-09
-1.0103e-09
-1.30934e-09
-4.04691e-09
-6.2855e-09
-7.10881e-09
-7.38655e-09
-6.70024e-09
-3.1052e-09
-3.58577e-09
-1.07682e-08
-9.49161e-09
-3.16931e-09
-7.91439e-10
-1.98672e-09
-5.91385e-09
-1.05594e-08
-9.43216e-09
-3.97515e-09
-1.18684e-09
-1.6969e-09
-2.10758e-09
-1.95151e-09
-1.24543e-09
-2.85453e-10
-7.93782e-10
-2.01502e-09
-2.05634e-09
-1.75718e-09
-1.84641e-09
-2.02128e-09
-2.14656e-09
-2.15145e-09
-2.93901e-09
-4.9224e-09
-4.98333e-09
-3.0151e-09
-1.53245e-09
-1.13926e-09
-1.66504e-09
-3.06492e-09
-3.98257e-09
-2.92946e-09
-4.52702e-10
-1.27922e-09
-5.12777e-09
-7.21491e-09
-6.96637e-09
-5.33719e-09
-1.5328e-09
-1.54465e-09
-6.44628e-09
-4.72625e-09
-7.0982e-10
-1.0243e-09
-4.30663e-09
-6.57054e-09
-5.8377e-09
-3.17714e-09
-9.80583e-10
-8.11854e-10
-2.13206e-09
-3.74667e-09
-5.52738e-09
-6.40929e-09
-5.08153e-09
-2.77242e-09
-1.10082e-09
-3.94797e-10
-5.89349e-10
-8.24723e-10
-5.80074e-10
-2.63551e-10
-8.60414e-10
-1.25917e-09
-1.0092e-09
-6.24017e-10
-5.47873e-10
-1.06955e-09
-1.97098e-09
-1.02621e-09
-1.08615e-09
-1.44916e-09
-2.48026e-09
-2.56217e-09
-1.00864e-09
-5.53649e-10
-2.57017e-09
-4.77152e-09
-7.44152e-09
-9.40216e-09
-7.32959e-09
-4.50502e-09
-4.34209e-09
-4.319e-09
-4.27952e-09
-7.17991e-09
-9.7384e-09
-7.56688e-09
-3.62539e-09
-1.31657e-09
-8.11256e-10
-1.43073e-09
-2.21096e-09
-2.46178e-09
-1.95855e-09
-1.09434e-09
-7.12734e-10
-1.10406e-09
-1.45496e-09
-1.01092e-09
-2.41214e-10
-3.67517e-10
-1.30214e-09
-1.7443e-09
-1.21558e-09
-6.01467e-10
-3.81119e-10
-4.50413e-10
-7.27876e-10
-4.39553e-08
-1.67794e-08
-3.24413e-08
-1.3774e-07
-3.06792e-07
-4.00772e-07
-3.89308e-07
-3.22047e-07
-2.7564e-07
-3.08777e-07
-4.73651e-07
-7.95666e-07
-1.23709e-06
-1.69483e-06
-2.08387e-06
-2.38686e-06
-2.69272e-06
-3.05703e-06
-3.21957e-06
-2.4437e-06
-8.98663e-07
-1.46306e-07
-1.00722e-07
-2.68243e-07
-3.71334e-07
-3.5559e-07
-3.67516e-07
-5.39466e-07
-1.05925e-06
-2.01231e-06
-2.98071e-06
-3.13603e-06
-2.15624e-06
-8.13986e-07
-9.61457e-08
-1.85324e-07
-3.28442e-07
-1.06168e-07
-4.18451e-09
-4.74971e-08
-5.99695e-09
-6.86603e-09
-1.50909e-08
-3.22331e-08
-5.45224e-08
-8.14794e-08
-1.07818e-07
-1.31571e-07
-1.39971e-07
-1.1333e-07
-7.97699e-08
-7.76408e-08
-1.14603e-07
-1.85779e-07
-2.67908e-07
-3.18209e-07
-3.50128e-07
-4.63789e-07
-7.73358e-07
-1.19057e-06
-9.06849e-07
-4.8731e-08
-1.55552e-07
-5.47572e-08
-1.94881e-07
-4.79098e-07
-4.95461e-07
-3.38177e-07
-2.47722e-07
-2.95343e-07
-4.80188e-07
-7.80733e-07
-1.04422e-06
-9.98392e-07
-5.90246e-07
-1.12117e-07
-9.66552e-08
-2.13308e-07
-8.70759e-08
-1.2267e-08
-3.09586e-08
-1.69293e-08
-2.96157e-08
-5.56832e-08
-7.94939e-08
-9.04185e-08
-8.51509e-08
-6.7691e-08
-6.35962e-08
-9.4607e-08
-2.08729e-07
-3.85023e-07
-5.26549e-07
-6.82023e-07
-1.01457e-06
-1.70313e-06
-2.75459e-06
-3.67523e-06
-3.81368e-06
-2.87929e-06
-1.53843e-06
-1.15225e-06
-2.02147e-06
-1.63496e-06
-4.12927e-07
-1.89609e-07
-2.83005e-07
-6.91004e-07
-1.48554e-06
-2.34083e-06
-2.9066e-06
-3.00531e-06
-2.51035e-06
-1.63737e-06
-7.98245e-07
-2.65161e-07
-2.5202e-07
-7.76798e-07
-7.96724e-07
-2.36817e-07
-9.96437e-08
-1.64721e-08
-3.31898e-08
-6.273e-08
-7.6101e-08
-7.65598e-08
-6.99242e-08
-6.23238e-08
-6.84117e-08
-1.05712e-07
-1.77893e-07
-2.59618e-07
-2.79375e-07
-2.72901e-07
-3.57461e-07
-6.42805e-07
-1.12694e-06
-1.46298e-06
-1.32949e-06
-9.78184e-07
-7.78413e-07
-9.48492e-07
-1.69694e-06
-1.71417e-06
-5.56732e-07
-1.75505e-07
-2.5879e-07
-5.9607e-07
-1.02672e-06
-1.28313e-06
-1.29877e-06
-1.20789e-06
-1.11716e-06
-1.07597e-06
-1.12317e-06
-1.15305e-06
-9.82462e-07
-1.07126e-06
-1.37475e-06
-7.45069e-07
-2.83711e-07
-1.30841e-08
-3.35085e-09
-7.48538e-09
-9.0261e-09
-6.97679e-09
-3.37898e-09
-8.16565e-10
-3.87129e-09
-4.27939e-09
-7.0759e-10
-1.31586e-08
-2.51596e-08
-2.34024e-08
-3.58484e-08
-9.83488e-08
-2.09783e-07
-2.49859e-07
-1.30389e-07
-2.80458e-08
-6.03885e-08
-1.06055e-07
-2.10916e-07
-7.1203e-07
-3.10837e-07
-3.15809e-08
-8.33072e-09
-8.22321e-09
-4.0475e-08
-9.15108e-08
-9.88954e-08
-5.94016e-08
-2.37744e-08
-1.60665e-08
-2.56561e-08
-3.82111e-08
-1.21763e-07
-3.75268e-07
-9.10563e-07
-1.21354e-06
-7.97624e-07
-5.73603e-08
-1.22805e-09
-1.58812e-09
-1.06004e-09
-5.13561e-10
-6.90198e-10
-5.33323e-09
-1.84247e-08
-4.44555e-08
-4.29767e-08
-1.85664e-08
-9.63156e-09
-1.30282e-08
-3.40346e-08
-7.85135e-08
-9.21987e-08
-5.41992e-08
-2.08466e-08
-4.96024e-09
-4.5103e-08
-1.3968e-07
-3.70347e-08
-1.69359e-07
-2.09933e-07
-3.49664e-08
-1.26687e-08
-2.37405e-08
-2.19577e-08
-1.34337e-08
-1.01742e-08
-1.59078e-08
-4.03629e-08
-8.30971e-08
-1.31135e-07
-1.74082e-07
-1.32966e-07
-5.86322e-08
-1.97891e-07
-1.14051e-06
-1.32464e-06
-2.73495e-07
-4.16204e-09
-4.92539e-09
-4.93838e-09
-2.76594e-09
-7.79059e-10
-6.80904e-09
-1.65426e-08
-1.31533e-08
-3.14379e-08
-4.72215e-08
-3.5284e-08
-2.45331e-08
-5.95873e-08
-1.06817e-07
-6.34711e-08
-9.54479e-09
-4.52206e-09
-9.6715e-09