/*--------------------------------*- C++ -*----------------------------------*\
| =========                 |                                                 |
| \\      /  F ield         | OpenFOAM: The Open Source CFD Toolbox           |
|  \\    /   O peration     | Version:  5.0                                   |
|   \\  /    A nd           | Web:      www.OpenFOAM.org                      |
|    \\/     M anipulation  |                                                 |
\*---------------------------------------------------------------------------*/
FoamFile
{
    version     2.0;
    format      ascii;
    class       volScalarField;
    location    "50.4676134421789371";
    object      dissUV;
}
// * * * * * * * * * * * * * * * * * * * * * * * * * * * * * * * * * * * * * //

dimensions      [0 2 -3 0 0 0 0];

internalField   nonuniform List<scalar> 
60000
(
-3.6838e-09
6.35393e-10
2.2327e-09
-5.19354e-10
-1.59335e-09
-9.12135e-11
-1.33721e-11
-2.21195e-10
2.27873e-11
-1.49872e-09
-4.62e-09
-4.13278e-09
-1.14822e-09
1.03862e-10
2.84848e-10
4.51148e-10
2.33853e-09
4.79634e-09
4.59775e-09
-9.93458e-10
-6.9647e-09
-1.01678e-08
-6.18633e-09
1.62474e-08
5.26834e-08
7.99664e-08
6.47985e-08
2.17412e-08
-5.31399e-09
-6.33368e-09
-2.61123e-09
-2.83644e-09
-8.00349e-09
-1.11053e-08
-6.99035e-09
-4.21728e-10
-1.60671e-10
8.47203e-11
-2.80867e-09
-5.36238e-09
-5.83416e-09
-4.8868e-09
-1.4794e-09
4.34091e-10
-2.74955e-10
-5.52485e-10
3.13718e-12
-1.61147e-10
1.04792e-10
-7.90915e-10
-3.59592e-09
-5.32671e-09
-2.33277e-09
2.49966e-10
1.07101e-09
3.86625e-09
7.68725e-09
7.78106e-09
1.67453e-09
-1.66997e-09
-2.23476e-10
-2.406e-09
-1.99539e-09
1.0053e-08
2.47979e-08
3.22771e-08
2.54141e-08
9.8551e-09
-2.85089e-09
-3.96574e-09
-1.19826e-10
8.66374e-10
1.03783e-09
-1.26836e-09
-5.25307e-09
-3.32326e-09
-1.05885e-10
-6.27001e-10
1.23584e-09
-1.93034e-09
-5.17009e-10
-2.15657e-09
-1.36309e-09
2.38617e-10
1.92405e-10
-1.49694e-09
-1.08425e-09
4.05559e-10
-7.75486e-11
-2.23414e-10
2.90268e-10
-1.25093e-10
6.48985e-10
1.12132e-09
-7.75191e-10
-6.07141e-10
6.92245e-10
-2.18394e-09
-2.26536e-09
1.34295e-08
3.00162e-08
2.40389e-08
4.832e-09
-1.14525e-08
-2.56061e-08
-3.19162e-08
-2.0393e-08
-2.4949e-10
1.13274e-08
1.19175e-08
8.87995e-09
1.50203e-09
-4.30028e-09
-1.68198e-09
2.03583e-09
1.43676e-09
9.44653e-10
-4.19051e-09
-5.15311e-09
-1.57619e-11
8.90885e-10
1.44491e-09
1.45571e-09
3.30265e-10
-3.30842e-10
-1.16301e-09
-1.66967e-09
-3.99357e-10
5.1498e-10
-1.32708e-09
3.94659e-10
1.54194e-09
2.90425e-09
3.50703e-09
-1.84184e-10
-1.74372e-09
-7.26635e-10
-1.82169e-09
-1.45413e-09
1.26984e-08
3.11551e-08
2.54073e-08
5.78078e-09
-8.02447e-09
-1.9149e-08
-2.23176e-08
-1.07262e-08
5.37911e-09
1.38878e-08
1.46152e-08
1.29423e-08
8.10627e-09
2.58862e-10
-2.86137e-09
1.0908e-09
4.4295e-09
3.52874e-09
-1.56292e-09
-8.6151e-09
-4.7689e-09
-1.09211e-09
-4.36277e-10
-8.09163e-10
6.84835e-10
7.06946e-10
4.77668e-10
-2.07043e-10
-1.19556e-09
-3.22465e-11
-1.08162e-09
-3.11271e-10
6.60293e-10
-1.72815e-09
8.52433e-10
2.56052e-09
1.99918e-09
3.22107e-09
1.72116e-09
1.87289e-10
4.19913e-09
2.17377e-08
2.31206e-08
6.52791e-09
1.15392e-09
-4.76828e-09
-1.01565e-08
-6.271e-09
-7.12097e-10
5.24752e-10
-2.81093e-09
-2.24186e-09
2.20124e-09
2.72616e-09
-4.74782e-10
-1.51968e-09
1.48042e-09
1.62069e-09
1.49609e-09
-3.0809e-09
-6.9675e-09
-4.38054e-09
1.80418e-10
-2.13927e-09
-1.40079e-09
9.36439e-10
1.47763e-09
9.09504e-10
-2.65955e-10
-7.14695e-10
-3.01871e-10
-1.42478e-09
1.56677e-09
-1.46086e-09
-4.85096e-09
9.58442e-10
6.19066e-09
7.128e-09
4.14571e-09
1.85711e-09
1.69206e-09
1.13369e-08
2.35387e-08
1.1222e-08
2.30967e-09
-4.74864e-09
-6.49543e-09
-2.73115e-09
-4.27687e-10
3.55386e-10
-1.6317e-09
-7.46683e-09
-8.57167e-09
-3.4632e-09
5.18054e-10
8.76439e-12
-4.18292e-10
1.2458e-09
7.72448e-10
1.30588e-09
-3.2753e-09
-4.01165e-09
-3.3421e-09
-9.64634e-11
-7.88184e-11
9.12862e-10
1.3194e-09
3.33465e-10
1.70166e-10
1.80048e-11
7.54369e-10
-5.158e-10
5.36383e-10
4.04897e-09
-1.81395e-09
-4.80875e-10
7.58621e-09
6.69913e-09
3.54167e-09
2.30645e-09
1.38206e-09
4.05574e-09
1.86912e-08
1.80209e-08
2.09466e-09
-6.98112e-09
-3.43668e-09
-2.96087e-10
7.5927e-11
1.01534e-10
1.01771e-09
1.3843e-09
-3.70774e-09
-9.32055e-09
-7.17472e-09
-9.92055e-10
4.22989e-10
8.1563e-10
1.66335e-09
6.82543e-10
5.84889e-10
-2.40619e-10
-4.57101e-09
-3.31348e-09
1.93218e-10
2.49072e-09
2.77522e-09
3.06741e-10
-1.37214e-09
-3.28448e-10
1.60256e-09
1.79269e-09
-2.16959e-10
5.3911e-09
3.19031e-09
3.37188e-09
6.56667e-09
2.92506e-09
7.17472e-10
2.46921e-09
-1.08179e-10
-1.04206e-09
9.98235e-09
1.88925e-08
2.99539e-09
-5.29042e-09
-1.10062e-09
-5.99097e-11
-6.92661e-11
1.07913e-10
5.57379e-10
2.09604e-09
3.45023e-09
-5.53307e-10
-7.98328e-09
-8.05602e-09
-1.79254e-09
1.13836e-09
1.99501e-09
1.22902e-09
3.65042e-10
6.04194e-10
-8.37219e-10
-3.88126e-09
-1.57895e-09
2.24598e-09
3.95197e-09
2.49752e-09
-7.99743e-10
-1.27649e-09
3.65004e-10
2.37046e-09
3.78711e-10
7.93395e-10
5.57148e-09
7.18292e-09
3.19874e-09
-1.54564e-09
-1.91414e-09
1.17866e-09
5.93843e-10
-6.81822e-09
1.32977e-09
1.3304e-08
3.359e-09
-2.18936e-09
-9.87553e-10
-1.18607e-09
-3.56512e-10
1.23317e-10
5.5414e-10
1.31435e-09
2.14198e-09
2.68438e-09
3.74831e-10
-4.73578e-09
-5.42964e-09
-1.25025e-09
1.45229e-09
1.72895e-09
4.19604e-10
1.9936e-10
1.38277e-09
-7.1008e-10
-3.43915e-10
3.18352e-09
4.12859e-09
2.22195e-09
-5.166e-11
-8.38618e-11
1.42422e-09
-9.10106e-11
2.58165e-10
-1.94847e-09
4.42764e-09
5.7555e-09
-7.49984e-10
-3.02341e-09
-1.5556e-09
4.66e-11
1.92621e-09
-4.99287e-09
-6.45315e-09
7.14274e-09
5.06433e-09
1.12184e-09
-1.6453e-09
-1.46529e-09
-2.48216e-11
1.89794e-10
3.69347e-10
9.43553e-10
1.35709e-09
1.26308e-09
9.71387e-10
7.15897e-11
-1.61501e-09
-2.04418e-09
-6.03565e-10
4.85266e-10
3.89564e-10
-7.04431e-10
9.1032e-10
1.13444e-09
1.28714e-09
4.30537e-09
5.0616e-09
2.04964e-09
-2.13641e-10
-1.37483e-11
2.14358e-09
1.28959e-09
-1.35025e-09
5.70323e-11
2.20006e-09
2.6669e-09
-1.10183e-09
-1.72925e-09
-5.83946e-10
1.03732e-10
6.52413e-10
1.63807e-09
-5.2043e-09
9.63271e-10
7.11257e-09
2.84767e-09
-1.27638e-09
-1.64395e-10
4.96436e-10
1.10401e-10
6.75389e-11
4.03671e-10
8.19187e-10
8.67381e-10
3.79828e-10
-1.35782e-10
-2.40493e-10
-1.6411e-10
-3.75352e-10
-6.02168e-10
-6.43902e-10
-8.88617e-10
-8.1397e-10
8.9118e-11
1.17024e-09
4.18733e-09
4.42481e-09
1.22266e-09
-3.83777e-10
2.23986e-10
1.11709e-09
2.10532e-09
-6.78079e-11
-3.02743e-10
3.17947e-09
4.40622e-09
1.76509e-09
-3.37943e-10
-2.10388e-10
8.03578e-10
7.69109e-10
2.4353e-09
1.9027e-09
-9.72754e-10
2.97879e-09
1.27049e-09
6.03271e-10
1.26617e-09
4.52613e-10
-6.48771e-11
-1.6225e-10
-3.2256e-10
-1.91024e-10
4.43422e-10
2.96889e-10
-3.7615e-10
-5.16184e-10
-1.08429e-10
1.96201e-10
5.63268e-11
-3.48392e-10
1.59374e-10
-7.59461e-10
-1.66378e-09
5.73259e-10
3.5245e-09
2.67897e-09
1.70817e-10
-6.57337e-10
-8.9675e-11
7.83158e-10
2.21333e-09
1.32335e-09
-1.23419e-09
2.63689e-09
6.5173e-09
4.15624e-09
8.49326e-10
-1.36874e-10
1.47348e-09
2.54178e-09
1.85764e-09
3.86811e-09
2.8994e-09
-1.05602e-09
4.19872e-10
3.13197e-09
1.13229e-09
-6.77982e-11
-3.89864e-11
-1.41224e-10
-7.53544e-10
-1.31307e-09
-4.94793e-10
3.32984e-10
-4.72475e-10
-1.01188e-09
-3.80111e-10
1.6204e-10
-4.71495e-12
-4.2802e-11
1.43367e-10
1.67882e-10
-5.91045e-10
1.04124e-09
2.46539e-09
1.24598e-09
2.08345e-11
-2.9699e-10
-2.77354e-10
1.62076e-10
2.34826e-09
3.10028e-09
-1.02243e-09
1.09844e-09
6.8101e-09
4.78076e-09
5.43497e-10
6.08528e-11
1.11471e-09
1.6213e-09
1.9408e-09
1.95442e-09
2.62751e-09
5.50235e-10
2.04123e-09
1.47893e-09
-9.98005e-11
1.58391e-10
2.49498e-10
-1.26756e-10
-4.59328e-10
-9.26504e-10
-9.98237e-10
1.38842e-10
-1.74835e-10
-1.34595e-09
-9.72011e-10
-7.24029e-11
1.39774e-10
-5.36267e-11
3.30847e-11
-3.00491e-11
5.98672e-10
1.40887e-09
9.03748e-10
8.71565e-11
-1.98948e-10
-2.31555e-10
-5.67153e-11
-3.36095e-10
6.27276e-10
3.74624e-09
9.01341e-10
-6.01722e-10
4.48025e-09
3.15141e-09
5.21342e-10
3.66372e-10
3.10952e-10
7.38164e-10
9.00165e-10
1.51137e-09
7.9279e-10
5.52883e-10
1.66959e-10
-6.97579e-11
8.23346e-10
6.76422e-10
6.42432e-11
-2.5064e-10
1.71852e-10
6.24183e-10
-1.0864e-11
-2.0772e-10
2.03808e-10
-1.38279e-09
-1.74775e-09
-5.66161e-10
8.08559e-11
2.40372e-10
2.49593e-10
-2.87829e-10
8.97044e-11
5.29665e-10
1.45358e-10
-3.85778e-11
-1.53018e-10
-6.87366e-10
-4.77082e-10
1.24619e-10
3.81467e-10
2.44544e-09
2.13411e-09
-5.77166e-10
2.22998e-09
3.05738e-09
9.37576e-10
-4.2303e-11
8.54399e-10
1.24099e-09
3.86798e-10
1.31941e-10
2.05585e-10
-1.76859e-10
3.76621e-10
1.56656e-09
1.46246e-09
8.08846e-10
2.06904e-10
-1.98711e-10
9.51738e-11
8.51074e-10
1.16201e-09
2.00793e-10
-1.70322e-12
-6.21999e-10
-2.52416e-09
-1.73329e-09
-3.1623e-10
2.92562e-10
3.71405e-10
-2.75938e-10
-4.38732e-10
5.63374e-10
8.78585e-10
4.57732e-11
-3.04707e-10
-4.3654e-10
-7.11819e-10
-2.87179e-10
5.69748e-10
1.72521e-09
1.55168e-09
9.04358e-10
2.82363e-09
2.46414e-09
1.77414e-10
2.32469e-10
1.06816e-09
1.00073e-09
1.83542e-10
1.02495e-10
9.76092e-10
1.66783e-09
1.51547e-09
1.31654e-09
2.72982e-09
2.6561e-09
2.06484e-11
-8.91229e-10
-2.18008e-10
-2.15962e-10
7.62495e-10
1.6182e-09
-3.85543e-11
-2.58595e-10
-1.05951e-09
-2.60532e-09
-1.63777e-09
-1.00742e-10
-2.45522e-10
-8.77284e-11
3.29262e-10
1.4112e-09
1.07989e-09
2.65985e-11
6.70113e-11
1.17482e-10
-5.63559e-10
-5.52745e-10
2.5093e-10
8.71314e-10
7.53134e-10
1.42394e-09
2.35407e-09
9.53409e-10
-1.49285e-10
1.34668e-10
4.60023e-10
2.86877e-10
-1.27897e-10
4.35654e-11
8.08307e-10
7.28192e-10
9.68489e-10
3.38148e-09
2.76653e-09
2.10674e-11
1.40451e-09
2.60532e-09
1.33713e-09
3.19665e-10
-6.44411e-11
1.17831e-09
7.76417e-10
-1.22905e-09
-4.29519e-10
-6.97638e-10
-1.90314e-09
-1.26841e-09
-1.2172e-09
-9.50091e-11
1.85537e-09
1.96953e-09
1.24436e-09
1.01448e-09
4.86353e-10
6.21826e-10
9.11605e-10
1.92604e-10
-2.14133e-10
-5.49229e-11
2.96061e-10
1.05298e-09
1.09821e-09
3.60962e-10
1.54802e-10
2.78154e-10
5.21225e-10
4.30547e-10
5.36367e-11
3.73651e-10
9.10884e-10
1.29859e-09
2.23354e-09
1.36621e-09
-3.93793e-11
1.55346e-09
1.73603e-09
9.19419e-11
-2.52585e-10
7.14194e-10
1.76398e-09
1.07053e-09
5.92244e-10
-7.00339e-10
-1.61062e-09
-5.15765e-10
-1.58244e-10
-8.81462e-10
-5.01425e-11
-7.30731e-10
-6.22774e-10
1.03189e-09
1.70743e-09
2.20177e-10
-6.57033e-10
-1.03055e-10
1.19653e-09
1.41726e-09
-3.65834e-10
-9.42978e-10
4.17346e-10
9.4439e-10
2.66019e-10
1.90346e-10
4.72599e-10
4.00095e-10
4.792e-10
7.7481e-10
5.01724e-10
3.3567e-10
1.15969e-09
1.59588e-09
6.50376e-10
-1.84551e-10
4.18293e-11
2.17706e-10
2.06145e-10
3.23735e-10
1.53436e-10
3.33164e-10
1.75608e-09
2.81991e-09
1.79865e-09
2.02668e-10
-9.48681e-10
-1.05365e-09
-4.7475e-10
1.05603e-11
-3.66597e-10
9.24909e-11
-1.15501e-10
-4.3065e-10
-3.43914e-10
-1.17808e-10
2.25523e-10
3.11046e-10
1.40226e-10
4.32496e-10
4.12463e-10
-5.96104e-11
1.49505e-10
3.82675e-11
-2.29908e-10
2.03678e-10
3.71126e-10
-8.11762e-11
-3.12419e-10
2.07892e-10
7.51085e-10
4.31875e-10
-3.77084e-11
-6.82851e-11
3.62962e-11
2.77694e-10
3.41539e-10
2.21916e-10
3.64104e-10
5.96198e-10
3.77043e-10
3.21995e-11
9.30625e-10
1.23144e-09
1.41195e-10
-8.87097e-11
-8.65947e-11
-1.46609e-10
-4.5552e-10
-6.76437e-10
-1.61454e-11
-1.88206e-10
-2.39727e-11
7.05299e-11
-3.29266e-10
-3.15703e-10
3.39428e-10
5.62203e-10
-1.66498e-11
1.44731e-10
1.44034e-09
1.58616e-09
1.06034e-10
-5.54729e-10
2.26437e-10
1.04231e-09
1.11527e-09
7.58623e-10
6.40016e-10
8.54782e-10
8.74491e-10
3.88252e-10
-1.25612e-12
3.68456e-10
1.04342e-09
1.31509e-09
1.10525e-09
7.49678e-10
5.51277e-10
4.73311e-10
2.95432e-10
3.05437e-10
1.26947e-09
1.91753e-09
2.73499e-10
-8.74526e-10
-1.71972e-10
2.37038e-10
4.96235e-11
-3.75984e-11
1.17836e-10
1.92512e-10
8.8273e-11
5.33774e-11
-1.79952e-10
-4.52388e-10
-6.03414e-11
3.03693e-10
-3.97741e-10
-6.58386e-10
4.80792e-10
7.26083e-10
3.24907e-11
5.36802e-11
1.99021e-10
1.13317e-11
4.69879e-11
2.42859e-10
2.81417e-10
1.53091e-10
1.02209e-10
4.8199e-10
1.18004e-09
1.35032e-09
7.31491e-10
9.82907e-11
-6.49735e-11
3.15816e-11
3.24395e-10
6.1498e-10
4.7838e-10
3.38376e-10
7.35814e-10
1.08305e-09
7.03184e-10
1.80994e-10
1.63882e-10
2.04411e-10
4.90452e-12
-5.51217e-11
-3.53856e-11
4.11855e-11
1.5183e-10
-1.33485e-12
-2.13138e-10
-1.56125e-10
-1.36606e-11
1.14969e-10
1.22434e-11
-2.66845e-10
2.9084e-11
3.93641e-10
1.82105e-10
3.09395e-11
2.21876e-10
2.86115e-10
1.45771e-10
9.66664e-11
1.435e-10
1.98155e-10
3.57094e-10
5.51401e-10
4.77704e-10
3.09735e-10
3.86494e-10
4.41092e-10
1.93236e-10
2.81093e-11
1.80476e-10
3.10084e-10
3.04323e-10
5.34149e-10
8.36352e-10
5.93921e-10
2.91078e-10
4.33197e-10
4.92996e-10
2.54564e-10
6.19317e-11
5.92291e-12
4.06875e-10
2.43092e-10
-6.69795e-11
-1.68558e-10
1.01992e-10
1.90716e-10
-1.90909e-10
-5.40167e-10
-2.07255e-10
3.69048e-10
4.06698e-10
2.04979e-10
1.01277e-10
1.03236e-10
9.56871e-11
-2.75305e-11
-1.32257e-10
-1.05298e-10
-2.06224e-11
4.80558e-11
8.25915e-11
6.41595e-11
8.94218e-11
3.2509e-10
5.50029e-10
4.75195e-10
1.83436e-10
-3.58595e-11
3.77104e-12
1.86605e-10
2.81617e-10
1.81815e-10
4.77928e-11
1.41962e-10
3.12334e-10
2.62016e-10
1.18942e-10
1.46729e-10
3.12489e-10
4.22394e-10
-7.18507e-10
-7.51795e-10
-7.33616e-10
-1.70954e-10
2.23197e-09
4.25023e-09
3.97797e-09
3.42749e-09
2.45075e-09
1.87455e-09
1.749e-09
4.05718e-09
8.74968e-09
1.31976e-08
1.77049e-08
2.48275e-08
3.08808e-08
2.99786e-08
1.9908e-08
4.9032e-09
-1.88456e-09
-1.68511e-09
-5.43093e-10
-6.14643e-09
-3.27901e-09
-2.92362e-11
-4.6026e-09
-1.02965e-08
-6.40641e-09
5.32607e-09
2.00309e-08
2.55656e-08
1.85668e-08
3.01275e-09
-1.87058e-09
-1.08337e-09
-9.68666e-09
-2.43041e-09
3.26893e-10
-3.72677e-10
-9.65833e-10
-6.31557e-10
-3.37861e-10
7.69901e-10
2.96782e-09
5.25957e-09
4.39246e-09
1.38944e-09
-7.08759e-10
-5.95485e-10
-8.49333e-10
2.89332e-10
2.64728e-09
5.64369e-09
1.07095e-08
1.74108e-08
2.20522e-08
2.20008e-08
1.60812e-08
3.50042e-09
-2.22864e-09
4.03495e-09
1.37816e-09
4.05196e-10
7.28276e-09
1.24724e-08
7.59753e-09
4.725e-10
-2.25186e-10
3.40903e-09
7.37026e-09
1.00496e-08
8.86837e-09
3.37848e-09
-4.41183e-09
-4.7276e-09
3.76499e-10
-2.37996e-09
1.58706e-09
3.84511e-11
-3.83606e-10
-3.8492e-10
1.51854e-10
-3.57773e-10
-2.36362e-09
-4.32874e-09
-2.92802e-09
-3.52656e-10
2.27837e-09
4.64436e-09
4.02308e-09
1.647e-09
-9.0634e-10
-3.90089e-09
-6.36112e-09
-8.84393e-09
-1.25729e-08
-1.521e-08
-1.11864e-08
3.15656e-09
2.17106e-08
3.76181e-08
2.451e-08
1.52082e-09
-7.46225e-09
-9.44846e-09
-5.59018e-09
4.72286e-10
2.51905e-09
-7.4225e-10
-7.85255e-09
-1.23618e-08
-8.47928e-09
-9.17697e-10
5.65944e-09
2.13468e-09
4.21473e-10
2.40039e-10
-1.60816e-09
1.20826e-09
1.68352e-09
3.22473e-10
6.20753e-10
-4.98278e-10
-2.16885e-09
-4.19514e-09
-4.7371e-09
-1.00576e-09
3.07591e-09
6.32789e-09
5.32006e-09
2.78106e-09
3.50555e-10
-2.06828e-09
-3.59133e-09
-4.69438e-09
-6.25615e-09
-7.50322e-09
-4.83576e-09
7.00568e-09
2.57043e-08
4.24854e-08
3.32133e-08
5.06025e-09
-6.75198e-09
-9.20462e-09
-4.89255e-09
2.47334e-09
5.66917e-09
4.19069e-09
2.59807e-10
-2.50394e-09
-6.43448e-10
4.24212e-09
9.00912e-09
1.02216e-08
6.63255e-09
1.85138e-09
-7.44011e-09
-1.68474e-09
1.74512e-09
4.71464e-10
-4.86473e-10
1.34695e-10
2.72911e-10
-2.51996e-10
-1.69295e-09
-1.53548e-09
1.02973e-09
2.80241e-09
3.51417e-09
2.19539e-09
7.89629e-10
8.64919e-10
1.37768e-09
6.13517e-10
-1.60611e-09
-3.26418e-09
-2.28858e-09
1.96364e-09
7.18891e-09
2.01452e-08
2.76257e-08
8.48382e-09
-4.45824e-10
-2.50584e-09
-2.23497e-09
2.29772e-11
3.06921e-11
4.64465e-10
1.49585e-09
1.10742e-09
6.82774e-10
1.42391e-09
2.52989e-09
2.05917e-09
8.96303e-10
2.0436e-09
-6.85268e-09
-9.67812e-09
-4.77286e-09
2.85708e-09
-1.50806e-09
-4.51684e-10
1.58888e-09
1.86883e-09
1.04106e-09
-2.36133e-10
-2.10692e-11
1.2565e-09
1.14752e-09
1.17045e-09
1.70019e-10
1.25756e-09
2.97271e-09
1.60947e-09
-8.65482e-10
-2.06403e-09
-4.99548e-10
3.87072e-09
2.9884e-09
5.61682e-09
1.90252e-08
1.2052e-08
1.54101e-09
-3.65975e-09
-2.87636e-09
1.60171e-10
-4.26419e-10
-2.34483e-09
-1.81062e-09
-1.04303e-09
-1.52849e-09
-1.03923e-09
2.75518e-10
-4.36667e-10
-4.28979e-09
-2.84831e-09
-8.16111e-10
-1.15125e-08
-1.21732e-08
9.98103e-10
1.40721e-09
-6.37325e-10
1.57303e-09
2.38298e-09
1.1709e-09
4.71455e-10
3.31702e-10
1.81863e-11
1.61034e-09
3.52644e-10
-8.29004e-11
1.04101e-09
1.89216e-09
-1.31142e-10
-1.33641e-09
-2.12642e-09
-1.2553e-09
3.78476e-09
4.77902e-09
9.26845e-10
1.08258e-08
1.43885e-08
1.82271e-09
-7.10016e-09
-4.70581e-09
-9.43127e-10
3.36371e-10
1.55939e-10
-1.52782e-10
-9.56464e-10
-3.59857e-09
-5.73466e-09
-3.00799e-09
-5.20637e-10
-2.46283e-09
-6.59887e-09
-1.60228e-09
-3.53491e-09
-5.91241e-09
-7.71603e-09
1.98943e-09
7.98985e-10
1.29135e-09
2.97473e-09
1.35525e-09
-1.80654e-09
-1.91166e-10
2.78002e-11
1.2159e-09
2.36179e-09
7.42781e-10
1.22477e-09
3.69256e-10
-9.92696e-10
-8.79418e-10
-1.30763e-09
-1.25486e-09
3.0826e-09
6.2382e-09
-1.19801e-09
3.83619e-09
1.38653e-08
1.94889e-09
-6.07836e-09
-3.02276e-09
-7.08111e-10
-4.99775e-11
3.92064e-10
8.31229e-10
1.02804e-09
1.59313e-10
-3.21939e-09
-5.52701e-09
-2.69448e-09
-1.31161e-09
-4.00855e-09
-5.95767e-09
-7.45266e-11
1.55668e-09
-7.84029e-09
-4.38774e-09
5.56346e-10
1.61144e-09
3.22634e-09
1.86258e-09
-1.5236e-09
-3.85795e-09
4.45315e-10
4.40677e-10
3.59555e-09
5.02112e-09
2.2352e-09
-6.07219e-10
-1.47578e-10
9.03268e-10
3.33404e-10
-3.54797e-10
2.4416e-09
6.4912e-09
-1.66825e-09
-4.23417e-10
1.08108e-08
1.84124e-09
-3.10081e-09
-9.95252e-10
-2.57207e-10
-2.37766e-10
-4.23563e-12
2.48284e-10
4.02602e-10
6.1e-10
2.79957e-10
-1.70495e-09
-2.80672e-09
-1.62531e-09
-1.5469e-09
-5.11068e-09
-4.34584e-09
-9.18204e-10
3.739e-10
-8.3087e-09
-1.49242e-09
2.72069e-09
1.95602e-09
7.05319e-10
8.94042e-10
-1.65871e-09
-3.65532e-09
1.69279e-09
3.78302e-09
7.00419e-09
3.29679e-09
-3.6607e-10
1.66135e-09
3.01866e-09
1.55928e-09
2.98636e-10
2.07013e-09
4.6202e-09
-6.25889e-10
-1.7851e-09
6.60711e-09
2.37604e-09
2.65334e-12
-1.13604e-10
-4.55021e-10
-4.23586e-10
-2.07348e-10
-1.04564e-10
-1.48653e-10
6.14348e-11
1.71827e-10
-2.50624e-10
-7.57093e-10
-6.36575e-10
-3.72796e-10
-2.00751e-09
-6.57841e-09
-5.82329e-09
2.27526e-09
-2.70556e-09
-1.19053e-09
1.14313e-09
-3.53594e-11
5.73041e-10
3.97196e-10
6.58551e-10
-1.16831e-09
-2.39017e-09
5.54377e-09
9.65303e-09
4.5007e-09
3.05774e-10
2.4927e-09
3.89737e-09
9.63879e-10
6.18396e-10
1.86114e-09
1.63929e-09
2.97986e-10
-8.59461e-10
3.3041e-09
3.67125e-09
1.2402e-09
-6.2971e-10
-6.48996e-10
-2.23066e-10
-2.16836e-11
-4.07944e-10
-9.60062e-10
-4.89223e-10
6.7293e-11
-5.44834e-10
-7.92367e-10
-2.13689e-10
2.58153e-10
6.33342e-11
-3.83526e-09
-5.14294e-09
-4.44222e-09
3.53371e-09
9.79552e-10
-1.2582e-09
4.19977e-10
1.69872e-09
-3.92249e-11
-1.52246e-09
4.36152e-10
-1.29639e-09
8.36291e-10
1.06285e-08
6.09407e-09
1.01088e-10
1.99261e-09
2.158e-09
6.24588e-12
8.11041e-10
1.41752e-09
5.53527e-10
3.5864e-10
7.60394e-10
2.46065e-09
3.29449e-09
4.88544e-10
-4.94029e-10
-1.91928e-10
2.24104e-10
3.58717e-10
-4.3552e-10
-1.73202e-09
-1.72776e-09
-8.7005e-11
-5.58031e-10
-1.60777e-09
-6.50004e-10
1.91926e-10
-1.07278e-11
-2.05509e-10
-1.26924e-10
-5.60397e-09
7.98718e-10
2.23277e-09
-5.5504e-10
2.2711e-09
2.71933e-09
3.45657e-10
-7.92472e-10
-4.4036e-10
3.67195e-10
-7.01627e-12
6.44079e-09
6.76561e-09
4.04811e-10
3.83104e-10
4.72861e-10
3.73138e-11
3.19347e-10
1.44261e-09
1.74873e-09
1.01983e-09
2.62733e-09
3.7374e-09
1.67723e-09
7.52787e-10
3.86674e-10
-1.09457e-10
7.26037e-10
6.89452e-10
-8.81247e-12
-1.05699e-09
-2.39835e-09
-1.14432e-09
9.00433e-11
-1.59564e-09
-1.68053e-09
-1.51924e-10
-5.89223e-11
2.4482e-13
5.53838e-10
7.29263e-10
-4.39901e-11
2.31422e-10
1.3001e-09
3.04262e-09
2.04414e-09
3.24768e-10
3.217e-10
1.18247e-09
5.00086e-10
4.41862e-10
3.91462e-09
6.93641e-09
1.97133e-09
1.57336e-10
3.03059e-10
-3.26336e-10
-1.49641e-10
1.69538e-09
2.9711e-09
1.7197e-09
2.27081e-09
2.21574e-09
1.39257e-09
7.31979e-10
-6.18512e-10
1.21151e-09
1.99718e-09
8.73781e-10
3.26105e-10
8.48555e-10
-1.26299e-10
-1.44201e-09
1.09129e-10
-4.28041e-10
-1.77064e-09
-1.07796e-09
-8.58807e-11
-3.50506e-11
7.47261e-11
7.00226e-10
2.68048e-10
-2.64012e-13
1.25169e-09
1.02284e-09
1.00235e-10
-2.95833e-10
-7.03477e-11
1.54389e-09
1.8147e-09
-1.8869e-10
2.40542e-09
6.99003e-09
4.06654e-09
7.06694e-10
-2.04013e-10
-3.36483e-10
1.36021e-10
1.19219e-09
2.59713e-09
2.24319e-09
1.18659e-09
1.33642e-09
3.99866e-10
-6.67042e-10
1.93222e-09
2.82678e-09
1.32511e-09
7.92293e-10
9.1609e-10
7.4582e-10
1.45296e-09
3.9959e-10
-9.71842e-11
4.61294e-10
-1.16936e-09
-1.41867e-09
-4.94831e-10
1.35071e-10
7.51561e-11
1.50134e-10
4.91454e-10
5.30322e-10
2.9915e-10
-1.32723e-10
-3.81269e-10
-2.23222e-10
-2.05775e-10
6.46377e-10
2.10219e-09
-5.42262e-12
8.53902e-10
5.91441e-09
3.84569e-09
-2.01395e-10
-1.06402e-10
4.74703e-10
3.05104e-10
5.95851e-10
1.04872e-09
2.0811e-09
2.53598e-09
2.41956e-09
2.19681e-09
2.91218e-09
2.7464e-09
2.3384e-09
2.01834e-09
6.66551e-10
4.82933e-11
2.83629e-11
-4.96028e-12
1.19358e-09
2.68459e-10
4.40495e-10
-1.17244e-10
-1.47981e-09
-8.77991e-10
2.42836e-11
1.03328e-10
2.96983e-10
8.06818e-10
8.87889e-10
5.02363e-10
-1.42698e-11
-2.65921e-10
-1.4113e-10
1.78077e-11
1.64843e-10
1.2799e-09
5.29354e-10
9.46939e-11
4.01761e-09
2.68001e-09
-1.9482e-10
4.71416e-10
5.12971e-10
6.10397e-10
7.10929e-10
7.82607e-11
1.43741e-09
3.98712e-09
5.02004e-09
3.64826e-09
1.12408e-09
2.76944e-09
6.76229e-09
4.49482e-09
-5.41001e-10
-2.13327e-09
-1.67345e-09
1.97282e-11
1.4427e-09
1.20804e-09
-3.3034e-10
2.4563e-10
-4.37049e-10
-1.02798e-09
-2.70461e-10
1.98089e-10
4.82219e-10
8.08818e-10
1.35145e-09
1.11791e-09
3.32046e-10
2.72651e-11
-2.65217e-10
-4.72569e-11
2.60378e-10
2.24137e-10
5.3762e-10
1.22108e-09
3.3002e-09
2.28383e-09
3.01421e-10
1.00737e-09
1.45367e-09
8.69404e-10
7.27051e-11
-1.68069e-10
1.38049e-09
3.75655e-09
3.07802e-09
2.80923e-10
2.34339e-09
7.41757e-09
4.94685e-09
3.90566e-10
1.41307e-09
1.67598e-09
-1.1581e-09
-1.4543e-09
2.07586e-09
2.86191e-09
6.13151e-10
-5.25207e-10
9.65173e-11
-6.2191e-11
-1.92625e-10
1.97535e-10
9.55624e-11
8.37747e-10
1.43006e-09
9.06532e-10
5.31861e-10
5.95395e-11
-4.63993e-10
1.10335e-10
7.05775e-10
-4.58909e-10
-3.67799e-10
2.27855e-09
2.79428e-09
6.57974e-10
6.08921e-10
1.92809e-09
1.6607e-09
3.33109e-10
-2.75048e-10
3.72047e-11
4.88797e-10
4.98369e-10
-7.90669e-11
1.21802e-09
3.54487e-09
1.72406e-09
5.00681e-10
2.27616e-09
1.69245e-09
7.95204e-10
2.02124e-09
5.73971e-11
-1.18827e-09
1.76065e-09
1.71657e-09
-1.09502e-10
-5.17413e-10
9.60057e-11
4.06572e-10
5.3014e-10
6.41358e-10
2.12306e-10
-2.23476e-10
6.42357e-12
2.25434e-10
-7.07188e-11
-1.35682e-10
5.92189e-10
8.64053e-10
-4.61843e-10
-9.22476e-10
8.55583e-10
5.01667e-10
-1.04738e-09
-3.00868e-10
5.35379e-10
4.67008e-10
2.14933e-10
2.10428e-11
2.43871e-11
2.57751e-10
4.8943e-10
6.59703e-10
6.44982e-10
2.48154e-10
4.61129e-10
9.38674e-10
4.89963e-10
-7.64307e-11
7.07199e-10
2.98488e-09
3.57095e-09
7.95411e-10
-1.42989e-10
1.30808e-09
7.77337e-10
-2.09015e-10
-2.84339e-10
9.99785e-11
3.43462e-10
4.28873e-10
3.67418e-10
-2.4484e-10
-7.90897e-10
-6.15041e-10
1.17553e-10
1.0399e-09
1.43261e-09
8.74387e-10
-1.17056e-10
-2.75065e-10
4.26896e-10
-7.1007e-11
-9.23971e-10
-6.42776e-10
-1.24483e-11
3.53477e-10
6.01808e-10
6.45104e-10
3.47689e-10
1.9788e-10
4.67515e-10
5.15288e-10
4.2751e-10
8.62289e-10
1.17251e-09
8.31939e-10
3.14346e-10
-7.34757e-11
3.6637e-10
2.64021e-09
3.57762e-09
1.61064e-09
1.41667e-09
1.46253e-09
5.4823e-10
-5.18193e-11
2.5382e-10
4.36916e-10
-1.28903e-11
-2.01816e-10
-3.02806e-11
2.52826e-10
7.68676e-11
-2.34706e-10
2.99851e-10
1.53679e-09
1.50208e-09
5.77774e-12
-4.90537e-11
1.18999e-09
1.14013e-09
-1.48363e-10
-2.06696e-10
5.25902e-10
4.1471e-10
-6.09929e-12
1.36061e-10
3.7094e-10
1.25602e-10
-8.29058e-11
3.33006e-10
9.77917e-10
1.13911e-09
7.01625e-10
1.65459e-10
8.27179e-12
7.24198e-11
2.02771e-10
7.5948e-10
1.96874e-09
2.58465e-09
9.00481e-10
-6.32353e-10
5.56425e-11
4.09509e-10
1.29233e-10
4.61408e-11
1.02256e-10
3.18765e-10
2.35032e-10
4.66227e-11
-2.13864e-11
-5.95806e-11
-8.37654e-11
2.90766e-10
1.04483e-09
9.99264e-10
-5.57361e-10
-7.8841e-10
1.14436e-09
1.17887e-09
-1.42621e-10
-1.33018e-10
6.61355e-10
1.01913e-09
5.88495e-10
5.93437e-11
1.23127e-10
3.7486e-10
4.35601e-10
4.24436e-10
2.36571e-10
1.01605e-11
1.73372e-10
4.01495e-10
2.73048e-10
1.00501e-10
1.53974e-10
4.04584e-10
7.486e-10
9.13965e-10
7.77341e-10
3.67909e-10
-8.25839e-12
-3.30896e-11
5.48725e-12
3.0472e-11
1.85498e-10
2.38879e-10
1.44129e-10
8.14269e-11
1.27617e-12
4.59855e-11
1.8587e-10
1.86472e-10
3.18365e-10
5.36857e-10
3.51431e-10
1.08032e-10
3.45991e-10
4.26214e-10
7.32062e-11
2.53435e-10
1.00006e-09
1.31767e-09
8.25766e-10
1.59432e-10
-7.10935e-11
1.00364e-10
2.80737e-10
3.09937e-10
4.71829e-10
7.97675e-10
7.82249e-10
3.72591e-10
8.86943e-12
-7.01976e-11
1.57548e-10
4.26621e-10
3.86825e-10
7.19163e-11
-6.61067e-12
3.44485e-10
4.67718e-10
2.18401e-10
2.89832e-11
9.05701e-11
2.38275e-10
4.6525e-10
2.91917e-10
-2.05436e-11
1.10673e-11
3.68127e-10
3.90824e-10
-8.76237e-11
-2.93061e-10
2.50251e-10
9.19069e-10
1.17132e-09
9.75078e-10
5.15586e-10
2.5036e-10
3.5476e-10
4.23296e-10
1.20104e-10
-2.5045e-10
-2.37163e-10
6.72929e-11
2.77488e-10
2.67775e-10
2.63133e-10
3.41938e-10
2.74635e-10
1.41559e-10
8.3392e-11
-5.36213e-11
-7.47746e-11
2.69868e-10
4.71258e-10
1.96297e-10
-6.03579e-11
1.07699e-10
3.73547e-10
3.88648e-10
2.04347e-10
6.54914e-11
1.29822e-10
3.40995e-10
-3.359e-09
-2.68296e-09
-1.12393e-09
1.96984e-09
4.63957e-09
3.46788e-09
1.53283e-09
-1.35059e-09
-2.25122e-09
5.03474e-10
4.33821e-09
6.94541e-09
7.51931e-09
7.17607e-09
1.52065e-08
2.1984e-08
2.68715e-08
3.2463e-08
3.87869e-08
2.50479e-08
-3.8549e-09
-5.46441e-09
-2.37436e-09
-5.93571e-09
-1.19229e-08
-1.32345e-08
-1.06557e-08
-6.85481e-09
1.29811e-09
1.51104e-08
2.79552e-08
2.72994e-08
1.50444e-08
3.39368e-09
6.22925e-11
-9.80441e-10
-5.0647e-09
-3.80202e-09
6.19692e-11
3.82156e-10
-7.59344e-10
-1.56171e-09
-1.07262e-09
7.37947e-10
1.47804e-09
1.00102e-09
2.54584e-10
-8.62677e-10
-1.98136e-09
-1.62777e-09
-2.45395e-10
1.29794e-09
2.96163e-09
5.41692e-09
8.60484e-09
1.12982e-08
1.24384e-08
1.4382e-08
1.86248e-08
1.60003e-08
-1.38063e-09
-3.58873e-09
4.66783e-09
9.26656e-10
-3.06158e-09
-5.90319e-09
-5.01986e-09
-1.83957e-09
2.37744e-09
7.21773e-09
1.15735e-08
1.20152e-08
7.36111e-09
1.28938e-09
-2.04896e-09
-8.59712e-10
-9.29036e-10
-4.80623e-09
-1.8629e-09
7.80254e-10
3.22874e-09
1.5181e-09
1.19092e-09
-4.46215e-10
-1.27385e-09
-9.6394e-10
-4.8983e-10
-2.00742e-10
2.68958e-10
8.54352e-10
1.44468e-09
-1.30882e-10
-2.93258e-09
-5.80022e-09
-8.60168e-09
-1.19196e-08
-1.42423e-08
-1.51539e-08
-1.60978e-08
-1.04447e-08
3.29915e-09
1.41925e-08
2.15881e-08
6.12483e-09
5.12883e-10
7.32066e-10
6.85282e-10
5.11948e-11
-3.26931e-09
-9.22681e-09
-1.32367e-08
-1.07531e-08
-3.59061e-09
2.37487e-09
4.57785e-09
3.77453e-09
2.53538e-09
-2.25917e-09
-5.71942e-09
3.5802e-09
6.66909e-09
2.82e-09
1.88608e-09
-8.3007e-10
-2.2226e-09
-2.01051e-09
-1.4214e-09
-1.16791e-09
-4.77489e-10
5.42816e-10
1.6816e-09
4.29931e-10
-2.66256e-09
-4.85661e-09
-6.28938e-09
-7.64734e-09
-7.74605e-09
-7.08173e-09
-7.10464e-09
-3.81343e-09
5.23085e-09
1.68631e-08
2.58102e-08
1.11379e-08
-6.87221e-10
-5.52803e-10
-1.35943e-10
-4.02498e-10
-2.88393e-09
-6.87498e-09
-9.05121e-09
-6.78445e-09
-1.0288e-09
4.57956e-09
7.76805e-09
8.91459e-09
7.12628e-09
4.1689e-10
-1.00112e-08
-2.10603e-09
7.19708e-09
3.60818e-09
9.78201e-10
9.30455e-11
-6.41704e-10
-5.91031e-10
-4.09425e-10
-1.7823e-10
2.816e-10
2.5896e-10
1.90633e-10
3.98446e-10
-4.18745e-10
-1.23178e-09
-1.86694e-09
-3.1163e-09
-3.90875e-09
-4.66003e-09
-4.72009e-09
-1.64582e-09
2.1277e-09
1.79035e-09
1.03612e-08
1.46209e-08
2.01475e-09
4.33591e-10
2.53362e-10
-5.46019e-11
-1.00492e-10
-1.06096e-09
-2.23869e-09
-1.92141e-09
-4.60071e-10
5.47088e-10
6.78833e-10
1.057e-09
2.54195e-09
2.03255e-09
-6.83362e-09
-1.36167e-08
-3.06129e-09
7.3342e-09
1.16694e-10
-9.93824e-11
1.95821e-10
1.83998e-10
-8.39625e-11
-1.42864e-11
1.00323e-09
1.2132e-09
-2.51534e-10
-6.53976e-10
1.17531e-10
1.98259e-10
-5.41899e-10
-1.48726e-09
-1.8293e-09
-2.49918e-09
-2.47938e-09
-6.88658e-10
2.9065e-09
1.08941e-09
-1.02189e-09
1.06168e-08
5.50411e-09
1.04511e-09
8.9505e-10
1.41536e-10
-2.66067e-10
1.98905e-10
3.45309e-10
3.22707e-10
7.72098e-11
-9.10445e-10
-2.19003e-09
-3.50994e-09
-3.18735e-09
-3.15391e-10
-6.22137e-10
-1.65461e-08
-1.8762e-08
6.09755e-09
2.03415e-09
-5.24093e-10
3.26947e-10
5.83575e-10
4.76571e-11
-2.44226e-10
4.4514e-10
1.50186e-09
1.18868e-09
-3.0825e-10
-8.05504e-11
6.95529e-10
9.61726e-10
1.13314e-09
1.96937e-10
-6.01108e-10
-3.00736e-10
-1.47186e-09
2.59182e-09
7.06781e-09
1.35602e-09
3.31612e-09
6.94719e-09
1.1274e-09
-7.80465e-10
3.3704e-10
4.10054e-10
4.19148e-10
3.52759e-10
-6.33837e-13
-1.31379e-09
-3.635e-09
-4.61761e-09
-4.18287e-09
-4.47471e-09
-4.23287e-09
-5.85931e-10
-6.02988e-09
-1.62841e-08
-8.33347e-09
3.61931e-09
1.51612e-10
2.65617e-10
8.27472e-10
3.27114e-10
-6.25138e-11
7.84808e-10
2.94567e-10
1.09385e-09
1.82305e-09
5.49416e-10
4.48311e-10
2.42762e-09
4.32552e-09
2.15541e-09
6.95093e-10
9.50317e-10
-1.51604e-09
3.4327e-09
9.91123e-09
3.93561e-09
-2.51616e-10
6.00763e-09
1.61317e-09
-2.31722e-09
-7.00982e-10
5.95995e-10
6.45263e-10
6.23237e-10
4.52178e-10
-6.82973e-10
-3.66953e-09
-6.4182e-09
-5.3597e-09
-3.83173e-09
-4.70534e-09
-5.07972e-09
2.92344e-10
-3.05957e-09
-1.80974e-08
-1.10465e-09
1.01212e-09
8.53206e-10
1.24452e-09
7.55631e-10
-6.9506e-11
6.41971e-10
1.3662e-09
1.31982e-10
2.26389e-09
1.75078e-09
-7.69097e-11
2.2268e-09
4.09905e-09
2.38139e-09
2.07709e-09
9.99476e-10
-8.66444e-10
4.80366e-09
9.4016e-09
2.62974e-09
3.88446e-10
5.20266e-09
1.15999e-09
-2.10792e-09
-9.93718e-10
-9.40819e-11
1.13387e-10
2.64528e-10
2.71903e-10
1.92302e-10
-7.98423e-10
-3.23791e-09
-4.2519e-09
-2.88407e-09
-2.80595e-09
-5.97014e-09
-3.79951e-09
2.22904e-10
-1.12034e-08
-9.47572e-09
-8.33454e-10
2.5149e-09
3.43815e-09
1.84357e-09
2.36406e-10
-4.70273e-11
3.72709e-09
6.91351e-09
3.87966e-09
7.77594e-10
5.47916e-10