/*--------------------------------*- C++ -*----------------------------------*\
| =========                 |                                                 |
| \\      /  F ield         | OpenFOAM: The Open Source CFD Toolbox           |
|  \\    /   O peration     | Version:  5.0                                   |
|   \\  /    A nd           | Web:      www.OpenFOAM.org                      |
|    \\/     M anipulation  |                                                 |
\*---------------------------------------------------------------------------*/
FoamFile
{
    version     2.0;
    format      ascii;
    class       volScalarField;
    location    "50.4676134421789371";
    object      dissvw;
}
// * * * * * * * * * * * * * * * * * * * * * * * * * * * * * * * * * * * * * //

dimensions      [0 2 -3 0 0 0 0];

internalField   nonuniform List<scalar> 
60000
(
1.85612e-09
-2.61539e-10
2.9777e-09
6.29957e-09
3.78657e-09
-7.71082e-10
-9.50683e-10
2.84489e-09
7.76026e-09
1.00181e-08
7.03359e-09
3.0914e-10
-2.64376e-09
-3.74599e-09
-6.37967e-09
-6.56913e-09
-4.87372e-09
-5.40855e-09
-7.45436e-09
-1.85312e-09
1.28555e-08
8.79287e-09
-8.32464e-09
-3.29628e-09
2.9046e-08
7.51e-08
9.94468e-08
6.00439e-08
-1.19035e-08
-3.65345e-08
-4.36427e-08
-5.82378e-08
-5.36986e-08
-2.17043e-08
1.24756e-08
5.92925e-10
-5.79879e-09
1.22476e-08
1.90124e-08
1.13993e-08
3.95678e-08
1.43113e-08
8.81409e-10
-2.73816e-09
2.85522e-09
4.15022e-09
-1.20344e-09
6.86338e-10
1.06308e-08
2.68816e-08
3.67683e-08
2.25444e-08
-2.09928e-09
-5.12358e-09
-8.064e-09
-2.42532e-08
-3.48214e-08
-3.15311e-08
-1.76094e-08
8.21362e-11
2.24025e-08
4.84317e-08
2.45832e-08
-8.24258e-09
1.33743e-08
7.19935e-08
1.39784e-07
1.7245e-07
7.3363e-08
-7.04692e-08
-4.75403e-08
-2.06478e-08
-5.7283e-08
-8.26831e-08
-2.88493e-08
5.873e-08
-9.7106e-10
-1.42734e-08
3.348e-08
5.39039e-08
2.96355e-08
2.48076e-08
3.90579e-09
-1.2116e-08
-3.31077e-09
2.61548e-08
1.97295e-08
-6.95016e-09
-2.38126e-08
-1.80807e-08
-1.22424e-09
3.28932e-09
-1.01599e-09
2.09725e-08
4.09409e-08
1.31425e-08
-5.03831e-09
2.24946e-08
3.80859e-08
-1.79265e-08
-1.19782e-07
-1.13114e-07
-6.25438e-08
-5.66295e-08
-2.58245e-08
-2.35683e-08
-8.25932e-08
-1.31667e-07
-6.39593e-08
8.19011e-08
2.81078e-07
4.68621e-07
4.10255e-07
2.06663e-07
3.61673e-08
-1.13821e-08
-7.04657e-08
-2.35694e-07
-1.24959e-07
-4.34423e-09
-1.41528e-08
-3.26704e-09
9.70726e-09
1.76988e-08
2.12457e-08
4.21987e-08
4.68317e-08
1.78541e-09
-3.64485e-08
-3.97356e-08
-1.9384e-08
-7.66724e-09
5.69423e-09
4.40996e-08
7.15672e-08
4.36567e-08
1.69241e-08
1.86835e-08
-5.65659e-09
-1.04432e-07
-2.04419e-07
-1.50952e-07
-4.72004e-08
-3.12228e-08
1.4025e-09
2.14059e-08
-3.48571e-09
-3.48982e-08
-2.54866e-08
3.99121e-08
1.64076e-07
2.94288e-07
2.89709e-07
1.4895e-07
5.57484e-09
-7.16415e-08
-1.36716e-07
-2.45299e-07
-2.01762e-07
-6.32454e-08
-7.57375e-09
-2.58987e-09
-1.38892e-09
5.93063e-09
1.06782e-08
2.12641e-08
3.82192e-08
1.87965e-08
-2.69844e-08
-4.71369e-08
-2.26513e-08
1.93852e-09
5.27449e-09
4.37919e-09
1.18941e-08
-7.646e-09
-2.02491e-08
-5.1425e-09
-3.55944e-09
-6.57292e-08
-2.10867e-07
-1.53048e-07
-4.22895e-09
-9.13117e-09
-1.08115e-08
9.78946e-09
3.8721e-09
-2.51143e-09
2.87696e-09
2.37933e-09
-1.92747e-08
2.21431e-08
1.1052e-07
1.09661e-07
2.09122e-08
-3.59625e-08
-1.53719e-08
-6.73845e-08
-1.51769e-07
-7.80098e-08
-1.73825e-08
7.56118e-10
-1.09118e-08
-2.6587e-08
-3.75912e-08
-3.47866e-08
-9.99124e-09
1.20264e-08
-8.01958e-09
-4.51277e-08
-3.77395e-08
-4.38524e-09
7.36802e-09
-5.44426e-09
-4.06077e-08
-6.32299e-08
-4.12683e-08
-1.97626e-08
-3.32034e-08
-1.1669e-08
-1.64067e-07
-2.10451e-07
-3.15174e-08
-2.19251e-09
-1.02203e-10
5.07312e-09
4.20711e-10
-4.90744e-10
-9.81358e-10
-4.19657e-09
-3.66627e-08
-9.60945e-08
-6.56342e-08
2.70652e-08
4.14816e-08
-1.28802e-08
3.08066e-10
5.90812e-08
-2.11325e-08
-7.85888e-08
-3.55089e-08
8.8948e-10
-4.97162e-10
-1.4559e-08
-4.22099e-08
-6.65618e-08
-6.12889e-08
-2.0828e-08
-4.17585e-10
-3.30323e-08
-3.51762e-08
2.66495e-09
8.66681e-09
-6.09544e-09
-4.75052e-08
-6.78557e-08
-1.7526e-08
-7.37345e-09
-4.67068e-08
-3.72567e-08
-4.76091e-08
-2.32385e-07
-1.08497e-07
-1.90031e-08
5.1227e-09
1.45956e-10
-1.08256e-09
-4.41259e-10
-1.0085e-09
-5.3542e-09
-1.85076e-08
-5.49175e-08
-1.00889e-07
-7.16155e-08
1.90243e-09
8.26221e-09
-2.35855e-08
9.47866e-09
3.22007e-08
-3.19111e-08
-2.60086e-08
-1.18675e-08
6.64803e-09
6.60266e-09
-1.33999e-08
-4.47187e-08
-6.79413e-08
-4.78378e-08
9.66703e-09
-6.90293e-09
-2.35778e-08
3.84958e-08
2.82511e-08
-1.76435e-08
-5.69591e-08
-3.41594e-08
-2.6319e-09
-7.78307e-09
-2.05044e-08
-7.20017e-08
-6.79782e-09
-1.25955e-07
-1.47599e-07
-3.18152e-08
-2.73121e-09
-2.2182e-09
2.75265e-09
5.67936e-10
-7.69921e-10
-1.916e-09
-8.14329e-09
-2.15126e-08
-4.59921e-08
-7.32304e-08
-5.00484e-08
-2.93607e-09
-6.12622e-09
-2.09379e-08
-1.72018e-09
9.2094e-10
-9.46297e-09
-2.28439e-08
-1.68591e-09
1.06863e-08
1.14865e-09
-1.38808e-08
-2.87157e-08
-3.20052e-08
5.91802e-09
4.60365e-08
-1.3415e-08
5.4711e-08
6.71093e-08
-1.99453e-08
-4.49834e-08
-9.13658e-09
-1.80988e-08
-1.61655e-08
-1.96957e-09
-3.85829e-08
-6.023e-08
-1.62099e-08
-1.14739e-07
-4.14941e-08
-1.41594e-08
5.96547e-10
5.48215e-09
1.17751e-09
-5.51652e-10
-1.62825e-09
-3.83805e-09
-8.08066e-09
-1.56879e-08
-2.53352e-08
-3.14285e-08
-1.33093e-08
3.298e-09
-5.9604e-09
-1.30328e-08
-6.30785e-09
-7.97776e-10
-1.27737e-08
-7.3176e-09
8.49002e-10
-7.74922e-10
8.46807e-09
6.49558e-09
-2.28564e-09
2.33062e-09
3.97777e-08
3.62889e-08
6.54876e-09
9.16169e-08
2.31136e-08
-6.9686e-09
-8.25091e-09
-1.67318e-08
-8.76076e-09
-7.99356e-10
-3.28264e-09
-4.34726e-08
-1.35078e-08
-4.20471e-08
-4.08395e-08
-1.5834e-08
1.90666e-09
3.83208e-09
1.05469e-09
3.64852e-10
-6.35719e-10
-2.54771e-09
-5.04813e-09
-7.1911e-09
-8.64906e-09
-8.57639e-09
-5.17339e-09
2.48969e-09
3.03037e-09
-4.98686e-10
-2.60736e-09
5.69802e-09
1.13372e-08
6.91184e-09
-5.91806e-09
-4.11029e-10
2.33337e-08
2.08102e-08
5.53883e-09
4.16633e-10
8.93482e-09
3.54064e-08
6.38575e-09
3.67099e-08
6.41515e-08
1.53934e-08
-3.9152e-09
-5.52711e-09
-3.33437e-09
-9.47984e-10
3.1154e-09
2.19666e-09
-5.51581e-09
-3.14797e-09
-1.9586e-08
-7.86018e-09
-3.12938e-10
7.00902e-10
1.07846e-09
1.0292e-09
3.72857e-10
-6.76464e-10
-3.0928e-09
-6.86073e-09
-6.96883e-09
-4.13733e-09
-2.09652e-09
1.72139e-10
2.30061e-09
1.62499e-09
1.27488e-09
4.76117e-09
2.26946e-08
1.78053e-08
-5.4e-09
1.01557e-08
2.47172e-08
1.69846e-08
4.5508e-09
-9.26825e-10
4.89461e-10
9.12027e-09
1.7117e-08
6.8068e-11
4.2756e-08
2.26231e-08
2.67228e-09
-2.46602e-09
-5.01595e-09
-1.12958e-09
5.30145e-09
1.172e-08
1.65096e-08
1.05936e-08
4.47838e-09
-3.13597e-10
-6.34568e-10
1.29196e-09
1.29756e-09
6.01826e-10
-2.59312e-11
-5.899e-10
-5.58952e-10
-4.38729e-09
-1.04996e-08
-7.97751e-09
-2.94823e-09
-5.41372e-10
7.71852e-10
1.06518e-09
8.63967e-10
9.97449e-10
1.03897e-08
9.72173e-09
-1.42518e-09
1.09666e-08
1.36505e-08
7.68764e-09
3.22088e-09
4.83239e-11
-1.82032e-10
4.7351e-09
1.18995e-08
3.44496e-09
1.73671e-08
2.3445e-08
1.11727e-08
9.55869e-10
-6.06519e-09
-1.1207e-09
9.00829e-09
1.22528e-08
1.70233e-08
1.8125e-08
7.53981e-09
7.66724e-10
3.65299e-09
1.47415e-09
1.99268e-10
-6.17317e-11
-3.81803e-10
-3.11249e-09
-4.88527e-09
-7.40418e-10
-7.82955e-09
-1.52763e-08
-8.68485e-09
-2.49653e-09
1.84192e-10
5.17944e-11
2.71256e-10
2.42563e-10
6.369e-10
7.46932e-10
2.0455e-09
4.38256e-09
2.31607e-09
4.92378e-10
1.92466e-09
1.17008e-09
-1.34067e-10
4.15894e-09
9.89837e-09
4.2348e-09
8.60042e-09
2.27675e-08
1.57926e-08
2.57723e-09
-9.37202e-10
-2.17832e-10
2.94837e-09
9.93164e-09
1.02421e-08
3.53996e-09
-1.92817e-09
2.02882e-09
1.30725e-09
-4.09446e-10
-6.12519e-10
-3.89346e-11
5.4252e-10
-4.01967e-09
-1.35e-08
-1.10983e-08
8.66795e-11
-1.32e-08
-1.53796e-08
-6.29073e-09
-9.11538e-10
3.76506e-10
-7.10034e-11
-3.66707e-10
-1.10232e-10
2.14272e-09
2.70198e-09
1.01406e-09
-1.85734e-10
-9.15985e-10
2.03878e-12
1.35213e-09
-1.11862e-09
-1.58448e-09
4.52191e-09
4.03897e-09
3.06145e-09
1.47778e-08
8.03048e-09
1.77885e-10
1.33917e-09
7.06373e-10
-1.1666e-10
7.86231e-11
6.01333e-09
2.06707e-09
-7.91778e-10
-1.72907e-10
-2.15798e-09
-2.39212e-09
1.15327e-09
3.30083e-09
1.65007e-09
-3.64141e-09
-1.27095e-08
-1.98933e-08
-6.54546e-09
-4.40191e-10
-1.54877e-08
-1.075e-08
-3.18131e-09
1.30307e-10
7.11716e-10
-3.02831e-10
-1.26186e-09
9.59022e-10
1.30653e-09
8.69745e-11
-3.55583e-10
-1.07477e-09
-1.77296e-09
-2.8954e-10
5.50322e-11
-3.86768e-09
-2.7821e-09
2.22671e-09
6.25364e-10
1.56606e-09
-3.5882e-10
-8.12786e-10
1.99033e-10
1.26428e-09
2.76627e-09
2.66683e-10
3.20583e-09
9.82513e-09
1.79795e-09
-1.41948e-08
-1.61901e-08
5.69167e-09
1.90743e-08
9.35473e-09
-7.60849e-11
-3.05148e-09
-7.20327e-09
-1.53462e-08
-1.69698e-08
-5.57598e-10
-3.47745e-09
-1.28452e-08
-7.00462e-09
-1.36691e-09
9.20667e-10
-2.00246e-10
-1.59102e-09
-6.91406e-10
1.62029e-09
2.07603e-09
9.76202e-11
-1.43201e-09
-1.01022e-09
-2.45703e-10
2.81467e-10
-2.62722e-09
-5.15704e-09
1.83043e-10
1.75682e-09
-3.23182e-09
-3.7302e-09
-1.84599e-09
1.48575e-10
1.20607e-09
1.82249e-09
1.30748e-09
7.02044e-10
5.87049e-09
-3.49178e-10
-2.0506e-08
-1.2026e-08
2.41995e-08
2.1788e-08
-1.15706e-09
-3.74825e-09
-4.5571e-10
-1.66016e-09
-1.00005e-08
-1.91148e-08
-1.41535e-08
9.50934e-10
-5.12557e-09
-9.53665e-09
-4.25296e-09
-3.74074e-10
-1.83547e-09
-1.09389e-09
1.14587e-09
3.5375e-09
1.08461e-09
-6.15275e-10
9.4633e-10
8.79776e-10
5.3743e-10
3.75247e-10
-1.4276e-09
-3.03766e-09
1.52816e-09
2.65183e-09
-4.01349e-09
-3.65697e-09
3.73255e-10
9.10369e-10
-7.21844e-11
-5.07206e-10
7.23769e-11
6.41357e-10
-1.65618e-10
-3.04829e-10
8.20378e-09
1.69671e-08
1.13538e-08
4.80127e-11
1.11993e-08
1.34658e-08
5.76345e-09
5.46849e-10
-4.03847e-09
-1.47494e-08
-1.64253e-08
-9.67282e-09
1.14994e-10
-3.54885e-09
-6.38314e-09
-3.82417e-09
-7.63526e-09
-3.96525e-09
6.0237e-10
-7.47583e-10
-2.5538e-09
1.67129e-09
2.08278e-09
-6.09128e-10
-1.59259e-09
-1.4523e-10
-5.5338e-10
-1.96278e-09
6.49162e-10
7.47852e-11
-2.21799e-09
-8.23601e-11
5.1962e-10
-9.68049e-10
-2.33851e-10
-7.87286e-10
-1.20559e-09
2.74928e-09
7.95739e-09
1.47846e-08
1.90604e-08
6.47622e-09
3.52587e-09
2.27156e-08
1.80683e-08
7.02333e-09
4.22064e-09
6.24626e-09
1.14071e-09
-8.19508e-09
-1.42456e-08
-1.2513e-08
-7.38951e-09
-1.07329e-09
-1.67136e-09
-6.20588e-09
-2.09974e-09
-5.41884e-09
-8.24735e-09
-9.49058e-09
-3.62071e-09
-1.76092e-10
-1.31158e-09
-2.54199e-09
-3.441e-09
-2.18937e-09
1.87113e-10
-1.1585e-10
-1.2606e-09
3.75687e-10
1.86644e-09
4.34652e-10
-1.92738e-09
-2.52573e-10
3.00704e-09
2.34622e-09
-5.70996e-10
1.602e-10
4.4953e-09
4.40355e-09
9.77184e-10
1.1734e-09
3.6809e-09
1.89027e-09
-1.82816e-10
4.86049e-10
1.83691e-10
2.2503e-09
8.49788e-09
6.13619e-09
-5.00586e-09
-8.2009e-09
-5.63248e-09
-2.52923e-09
-8.16786e-10
-4.08916e-10
1.83353e-09
9.54783e-10
-2.70848e-09
-5.06096e-09
-2.4689e-09
-1.55507e-10
-2.39551e-10
-5.11992e-10
-5.72647e-10
-1.25707e-09
4.9299e-10
3.78506e-09
3.56538e-09
1.56554e-09
8.36234e-10
6.90868e-10
7.84376e-10
9.39771e-10
1.11237e-09
1.50303e-09
1.17115e-09
5.2313e-11
-2.07383e-10
3.01157e-10
-4.66695e-11
-5.95213e-10
-5.84487e-10
-2.83928e-10
3.13736e-10
1.23498e-09
1.03856e-09
-5.94726e-10
8.12716e-10
6.94957e-09
7.10156e-09
-1.28264e-09
-2.18755e-09
1.05951e-09
1.9401e-09
1.80775e-09
1.26735e-09
7.97874e-10
-6.92906e-11
-2.53464e-10
-1.29256e-11
3.15032e-11
-1.66057e-10
-5.28211e-10
-7.0047e-10
4.70991e-10
2.33657e-09
3.44658e-09
2.29881e-09
1.00841e-09
1.75184e-09
1.94348e-09
7.10689e-10
-7.88734e-10
-2.05449e-09
-2.21337e-09
-8.54754e-10
7.90478e-10
8.27543e-10
-8.22155e-10
-2.55594e-09
-3.18678e-09
-2.94632e-09
-1.93631e-09
-2.33618e-10
1.37746e-09
1.09858e-09
-1.01999e-09
-1.72553e-09
-2.14619e-10
2.98872e-09
3.06753e-09
3.49251e-10
2.96971e-11
8.43568e-10
1.07554e-09
1.78013e-10
4.39627e-10
2.7212e-10
2.79132e-10
8.02253e-10
1.26497e-09
1.298e-09
5.4057e-10
-1.26104e-09
-2.12136e-09
-7.60261e-10
-4.34918e-11
-1.11152e-11
6.21005e-10
1.00089e-09
3.62175e-10
-4.68658e-10
-3.68936e-10
-2.39001e-10
-6.84032e-11
4.86431e-10
-1.90845e-10
-1.85354e-09
-2.37986e-09
-1.65449e-09
-5.48248e-10
-2.95478e-11
-3.49613e-11
4.10622e-10
1.46583e-09
1.19534e-09
-7.7087e-10
-1.28215e-09
2.15605e-10
7.3921e-10
3.83702e-10
-1.70263e-10
-6.39075e-10
-6.26018e-10
-2.95494e-10
-2.81861e-10
-6.05379e-10
-4.36629e-10
2.86488e-10
2.05546e-10
-3.00577e-10
2.89934e-10
9.75546e-10
3.46239e-10
-1.02465e-09
-2.51909e-09
-2.48663e-09
-9.87722e-10
1.12697e-10
-5.50054e-11
-8.82736e-10
-7.73581e-10
1.27416e-11
1.82999e-10
-2.68157e-10
-7.44761e-10
-5.99628e-10
3.02979e-10
8.16709e-10
9.13643e-11
-6.50312e-10
-4.8497e-10
3.50907e-12
3.15124e-10
5.10474e-10
3.50205e-10
-5.1148e-10
-1.32543e-09
-1.90695e-10
1.11111e-09
3.57487e-10
-4.25857e-10
-4.24592e-10
-2.02605e-10
-1.2496e-10
-1.58492e-10
5.10853e-11
2.81966e-10
-3.98259e-11
-8.70877e-10
-1.22736e-09
-1.02249e-09
-5.6209e-10
-6.20794e-10
-9.8423e-10
-6.08752e-10
3.79582e-11
2.96051e-10
4.43056e-10
6.132e-10
2.59154e-10
-2.40896e-10
-2.53351e-10
-1.5565e-10
-2.40207e-10
-2.38575e-10
3.6031e-11
6.45061e-11
-4.92822e-10
-8.36025e-10
-6.17676e-10
-1.7761e-10
5.06261e-11
-1.09604e-11
-6.8957e-11
1.95674e-10
5.81376e-10
5.6235e-10
1.6111e-10
4.31591e-11
1.56411e-10
8.43292e-11
-2.30262e-11
-1.96248e-10
-2.87958e-10
-2.11424e-12
-5.1091e-12
-1.51516e-09
-5.86742e-09
-1.05046e-08
-1.0318e-08
-6.73662e-09
-3.55407e-09
-1.99343e-09
-2.10389e-09
-7.74469e-09
-1.99692e-08
-3.46863e-08
-4.76638e-08
-5.90761e-08
-7.20534e-08
-8.4029e-08
-8.0943e-08
-5.02853e-08
-4.931e-09
1.62102e-08
3.69324e-08
5.61585e-08
6.04967e-08
7.75953e-08
9.8333e-08
9.17129e-08
4.88377e-08
-3.9183e-09
-4.99845e-08
-7.29897e-08
-5.62731e-08
-1.02226e-08
2.38986e-08
1.88547e-08
-1.88603e-09
-1.60609e-08
-8.45464e-09
-3.38736e-10
5.11336e-10
3.37668e-09
7.00823e-10
-1.86897e-09
-7.21041e-09
-1.42119e-08
-1.95539e-08
-1.80712e-08
-1.06777e-08
-3.61999e-09
1.37619e-09
2.24578e-09
-6.48269e-09
-1.79262e-08
-2.88412e-08
-4.55245e-08
-6.92472e-08
-1.04932e-07
-1.49114e-07
-1.71936e-07
-1.02117e-07
-1.73235e-08
-6.86441e-08
-3.19108e-08
3.94211e-08
1.0214e-07
2.0114e-07
2.55298e-07
1.78092e-07
3.0923e-08
-5.06033e-08
-7.19429e-08
-8.25905e-08
-6.24481e-08
2.29083e-09
5.87289e-08
3.80272e-08
-2.13145e-08
-3.45997e-08
-5.96612e-09
5.37244e-09
7.5169e-09
2.54212e-09
-2.05711e-11
4.79151e-09
1.89219e-08
2.96896e-08
2.56985e-08
2.12894e-08
5.44335e-09
-7.34261e-09
1.19864e-09
1.33447e-08
3.6183e-08
7.1561e-08
9.60871e-08
1.17717e-07
1.44998e-07
1.72685e-07
2.13642e-07
2.42671e-07
1.60369e-07
-2.25926e-07
-3.85319e-07
-1.93791e-07
-1.43573e-07
-1.56301e-07
-1.79315e-07
-1.62862e-07
-5.79273e-08
1.45926e-07
3.59472e-07
4.08268e-07
2.64676e-07
5.78263e-08
-3.03325e-08
1.95558e-08
1.69913e-08
-9.80099e-08
-7.12047e-08
-6.50164e-09
9.25608e-10
3.30952e-09
7.89864e-10
6.69455e-09
1.67456e-08
3.13219e-08
3.82161e-08
3.31177e-08
1.26977e-08
-1.27489e-08
-1.23496e-08
4.16605e-09
1.76479e-08
3.21899e-08
3.88678e-08
4.15245e-08
3.58012e-08
3.67796e-08
6.94465e-08
1.14878e-07
9.12594e-08
-2.06152e-07
-3.54063e-07
-1.25711e-07
-5.31785e-08
-4.60234e-08
-4.52311e-08
-4.40306e-08
-2.32639e-09
9.63889e-08
2.01456e-07
2.30572e-07
1.63841e-07
4.58052e-08
-4.95546e-08
-6.98607e-08
-5.52297e-08
-1.0918e-07
-1.6183e-07
-5.57798e-08
-1.57601e-08
7.28073e-09
6.92516e-10
-1.10507e-09
-2.13745e-09
6.52468e-10
1.56005e-08
2.66247e-08
1.58995e-08
-1.18706e-08
-2.10778e-08
-3.4179e-09
2.52705e-09
-5.06403e-09
-5.51085e-09
1.07264e-08
1.07226e-08
3.97918e-10
-4.07487e-09
-1.46045e-08
3.20459e-08
-7.41578e-08
-2.64283e-07
-8.13701e-08
-7.06238e-09
-1.38334e-08
-6.82977e-09
-2.74055e-09
2.26428e-09
9.33966e-10
1.00766e-08
3.05974e-08
4.07748e-08
2.70477e-08
-3.95838e-09
-1.6783e-11
4.7348e-12
-6.4553e-08
-1.79728e-07
-1.3194e-07
-7.78535e-08
3.66844e-09
4.61175e-09
-5.47937e-09
-1.27115e-08
-2.16613e-08
-1.69962e-08
1.15887e-08
3.26954e-08
9.14665e-10
-2.79557e-08
-1.91982e-08
-5.79666e-09
-1.72266e-08
-1.76695e-08
4.76567e-09
-3.58777e-09
-7.48714e-09
-3.89497e-09
-4.46583e-08
-3.4942e-08
8.30042e-09
-1.48337e-07
-7.94278e-08
-7.43775e-09
-7.60276e-10
1.35914e-09
9.47813e-11
6.89103e-09
6.92682e-09
-1.28693e-08
-3.45172e-08
-3.62603e-08
-1.58583e-08
-1.96653e-09
3.68486e-09
5.67922e-08
5.20456e-08
-8.99719e-08
-2.09366e-07
-1.83997e-07
-2.85239e-08
6.01481e-09
-2.12023e-09
-9.26846e-09
-2.0339e-08
-3.45971e-08
-2.58487e-08
3.40279e-08
5.4285e-08
-1.17717e-08
-3.53322e-08
-2.31677e-08
-1.76539e-08
-7.35631e-09
-8.93772e-09
-2.894e-08
-1.52854e-08
1.4275e-09
-1.19316e-08
-3.8967e-08
1.20643e-08
-5.0875e-08
-7.3182e-08
-2.06241e-08
9.74815e-09
7.59774e-09
3.20279e-10
1.90291e-09
5.63181e-09
8.6972e-10
-1.50309e-08
-3.59833e-08
-4.66274e-08
-2.53958e-08
-6.6417e-09
1.44723e-08
8.5064e-08
6.06847e-08
-1.49645e-07
-2.10447e-07
-1.00556e-07
2.1326e-10
-4.28213e-10
-4.99978e-09
-9.94537e-09
-2.35608e-08
-4.06131e-08
-2.26993e-08
7.9458e-08
6.55078e-08
-2.49413e-08
-4.06149e-08
-1.90998e-08
-1.03598e-09
-3.12074e-08
-3.42197e-08
-8.73345e-09
6.35906e-10
6.61437e-09
-1.80938e-08
-5.03812e-09
4.69806e-10
-5.5761e-08
-1.88018e-08
1.17553e-08
7.21534e-09
3.60073e-10
-6.13421e-10
-5.69778e-10
-9.25321e-10
-5.16627e-09
-1.96976e-08
-3.74134e-08
-4.24766e-08
-2.16275e-08
-5.963e-09
3.02817e-08
1.02339e-07
3.65004e-08
-6.07842e-08
-1.78182e-07
-1.1593e-08
5.42869e-09
-5.38336e-09
-5.19423e-09
-2.3553e-09
-7.03924e-09
-2.84624e-08
1.1837e-09
1.29747e-07
6.0655e-08
-2.45505e-08
-1.36102e-08
-1.99103e-09
-2.92707e-08
-1.44464e-08
1.81968e-09
6.08266e-10
8.27911e-09
1.42815e-09
-1.63821e-08
1.09281e-08
-3.68608e-08
-1.24422e-08
4.84022e-09
1.93138e-09
-5.20849e-11
-7.92402e-10
-1.03465e-09
-7.47835e-10
-1.17183e-09
-6.44274e-09
-1.83665e-08
-2.67648e-08
-2.55329e-08
-1.19868e-08
5.70811e-10
4.61363e-08
1.23791e-07
7.95953e-08
-1.45618e-07
-3.81147e-08
1.19645e-08
-4.80707e-09
-6.16485e-09
2.87609e-09
7.3345e-09
5.40896e-09
-1.97375e-08
4.28411e-08
1.55893e-07
5.00121e-08
1.40088e-09
-2.59844e-09
-7.05482e-09
5.49912e-09
4.90402e-09
8.38332e-10
4.43566e-09
5.94924e-09
-1.16145e-08
3.62459e-09
-1.9014e-08
-1.15181e-08
-3.94295e-09
6.89544e-10
8.44278e-10
-5.14942e-10
-1.03147e-09
-4.60229e-10
5.01969e-10
-8.36378e-10
-5.80672e-09
-1.08405e-08
-1.13149e-08
-8.69952e-09
-2.76194e-09
8.96098e-09
7.55844e-08
9.53596e-08
-6.60129e-09
-4.17614e-08
1.37968e-08
3.73989e-09
8.22225e-11
9.44892e-09
1.13419e-08
9.76033e-09
6.23875e-09
-1.46436e-08
9.21954e-08
1.20853e-07
2.54207e-08
-1.81269e-09
1.05624e-08
1.20952e-08
2.18994e-09
5.94335e-10
3.10729e-09
1.61644e-09
-9.60613e-10
1.22763e-10
-8.20481e-09
-1.09843e-08
-1.55565e-09
3.15732e-09
9.39044e-10
-4.37697e-10
-4.51145e-10
-4.21668e-10
-5.3796e-10
4.2743e-10
-2.0911e-09
-5.59577e-09
-4.84098e-09
-3.31064e-09
-1.36409e-09
1.35532e-09
2.36563e-08
5.7107e-08
1.2147e-07
1.90679e-08
3.39532e-09
1.67684e-08
2.13652e-08
1.70503e-08
8.82068e-09
5.76064e-09
5.17936e-09
-4.68016e-09
1.17187e-08
8.05704e-08
3.13746e-08
-1.64671e-09
8.90311e-09
4.92981e-09
-5.71163e-10
4.6845e-10
3.63968e-09
4.43428e-09
4.10945e-09
4.06278e-09
-1.00037e-09
5.33854e-10
3.98993e-09
9.65447e-10
-8.11981e-11
-1.83714e-10
1.45543e-11
-1.12521e-09
-6.82767e-09
-6.00999e-09
-9.99562e-10
-6.29925e-09
-6.86163e-09
-2.76914e-09
-7.92981e-10
6.64678e-11
3.22754e-09
1.78435e-08
1.18953e-07
8.20509e-08
-4.95375e-09
2.36105e-08
3.8394e-08
1.92181e-08
2.51031e-09
4.02375e-10
2.39011e-09
8.29105e-10
1.80872e-09
3.02123e-08
2.38916e-08
3.16263e-09
5.12582e-10
-8.59154e-10
4.84486e-10
5.51521e-10
6.47629e-09
1.20753e-08
9.77049e-09
9.10841e-09
5.82644e-09
5.16814e-09
5.01248e-10
-8.04881e-10
-6.01598e-10
-2.35696e-09
-7.21686e-10
-2.2384e-10
-1.42628e-08
-2.45175e-08
-8.51208e-09
-3.45269e-09
-1.04966e-08
-6.18983e-09
-1.10203e-09
-2.2015e-10
-1.31405e-09
1.67791e-09
3.54436e-08
3.72166e-08
-3.77411e-09
1.50466e-08
2.79544e-08
1.27208e-08
4.23696e-10
1.79664e-09
4.28885e-09
3.74919e-10
2.07354e-09
1.47851e-08
2.08612e-08
1.20386e-08
2.66908e-09
1.37163e-09
2.4661e-09
2.45631e-09
9.55824e-09
1.59965e-08
1.12347e-08
5.93951e-09
1.86229e-09
-8.343e-10
-2.14241e-10
1.7284e-11
-4.51526e-09
-6.97885e-09
-5.32405e-10
2.9192e-09
-1.07288e-08
-3.51866e-08
-3.02221e-08
-3.58247e-09
-7.42593e-09
-8.95687e-09
-3.35502e-09
-9.4795e-11
-5.63807e-10
1.25139e-10
1.18471e-09
1.08317e-09
1.04118e-09
2.83676e-09
3.51477e-09
1.73906e-09
-2.5519e-10
1.42458e-09
4.4595e-09
1.42959e-09
-1.09634e-09
6.70232e-09
1.6221e-08
1.6638e-08
7.88793e-09
1.63588e-09
1.767e-09
3.70744e-09
5.64746e-09
9.39971e-09
1.01313e-08
2.53202e-09
-1.01681e-09
2.18712e-09
2.80937e-09
-6.15681e-09
-1.04365e-08
3.51342e-09
1.14483e-08
4.27204e-09
-4.38228e-09
-1.72661e-08
-3.36391e-08
-1.52267e-08
-1.46181e-09
-8.66273e-09
-5.25964e-09
-1.0355e-09
1.83541e-10
-5.34785e-11
-4.08294e-11
9.49645e-10
1.14689e-09
2.88027e-10
-9.57314e-11
-6.17452e-10
-7.15403e-10
-3.11129e-10
4.1718e-10
1.10748e-09
-8.8596e-10
1.4125e-09
8.35643e-09
8.59399e-09
1.08006e-09
-5.50418e-10
1.70541e-09
1.6042e-09
-3.22697e-10
1.08077e-09
9.82212e-09
1.19876e-08
9.67603e-09
6.47033e-09
-9.77837e-09
-1.41123e-08
1.6296e-08
3.10336e-08
1.96261e-08
7.1322e-09
-2.70873e-09
-2.7044e-09
-1.26668e-08
-2.03143e-08
-2.86152e-09
-3.59632e-09
-7.43954e-09
-3.0185e-09
-1.21352e-10
-9.45656e-10
-1.51859e-10
1.09979e-09
9.0674e-10
4.67059e-10
2.50643e-10
-2.89839e-10
-7.97799e-10
-4.57966e-10
-7.54564e-10
-1.47215e-10
7.44026e-10
-1.81351e-09
-6.77228e-10
-2.19327e-09
-3.07409e-09
7.63021e-11
-3.45616e-10
-3.59528e-10
-1.32036e-09
-1.38136e-09
6.44016e-09
1.90328e-08
2.23221e-08
6.29643e-09
-7.06501e-09
1.99765e-08
3.96996e-08
2.23467e-08
6.21972e-09
4.94858e-09
3.93826e-09
-3.71572e-09
-6.70898e-09
-1.58504e-08
-1.21062e-08
-7.77464e-11
-4.68191e-09
-5.69359e-09
-2.25311e-09
-4.68308e-09
-2.61329e-09
-1.15337e-10
1.55106e-09
1.06324e-09
-3.19714e-10
-3.05854e-10
-3.06225e-10
-5.52153e-10
-5.72319e-10
-9.86396e-10
5.97339e-10
-3.64469e-09
-7.96083e-09
-3.79345e-09
-3.63507e-10
-2.97463e-09
-4.26784e-09
-1.72305e-09
-7.56647e-10
-1.03662e-10
4.00108e-09
1.04792e-08
9.21144e-09
1.66193e-10
1.14388e-08
2.22282e-08
1.35173e-08
-3.06071e-10
1.12657e-09
2.47651e-09
3.55523e-09
4.28924e-09
-7.48174e-09
-1.2631e-08
-1.62179e-08
-8.02219e-09
-4.00667e-10
-4.00722e-09
-5.98995e-09
-5.5378e-09
-4.32665e-09
-1.67984e-09
-1.09292e-09
-2.19407e-09
-9.13295e-10
-9.05607e-12
-8.81645e-11
1.86445e-10
-4.05629e-10
-1.4357e-09
-2.18299e-09
-5.33834e-09
-5.49682e-09
3.06855e-11
-2.32881e-09
-5.43689e-09
-3.76445e-09
-3.87895e-10
7.92536e-10
1.78927e-10
1.5391e-10
5.37965e-10
1.2878e-09
9.28375e-09
1.64776e-08
9.44055e-09
-1.15091e-09
7.99087e-09
1.1752e-08
8.58133e-09
1.40298e-09
3.68079e-09
5.13486e-09
-7.56748e-09
-9.18961e-09
-7.04552e-09
-2.02979e-09
-8.8535e-10
-3.87853e-09
-5.18569e-11
1.09637e-10
-1.8526e-09
-3.7219e-09
-2.5375e-09
-2.71152e-10
-2.54314e-10
-5.47237e-10
8.34547e-10
8.82713e-10
-1.43366e-09
-1.74266e-09
-1.12213e-09
-8.19328e-10
-2.35023e-09
-2.93774e-09
-1.79246e-09
-5.8287e-10
1.9463e-10
8.825e-11
2.16089e-10
1.31917e-09
2.64371e-09
4.58607e-09
5.15646e-09
1.0143e-09
-6.24632e-10
1.96121e-09
1.73775e-09
1.29439e-09
3.43722e-09
6.25807e-09
1.85776e-09
-3.94321e-10
7.13099e-10
-2.90271e-09
-1.6819e-09
-1.0077e-09
-1.24037e-09
-9.8806e-10
2.12908e-09
1.53069e-09
5.38137e-12
-1.54509e-09
-1.71312e-09
-9.64798e-10
-6.63083e-10
-8.00027e-10
-4.06444e-10
3.22208e-10
-5.20783e-10
7.51213e-10
3.10431e-09
8.74468e-10
-1.0835e-09
-1.23259e-09
-1.65003e-09
-1.66144e-09
-7.83914e-10
-4.22996e-10
-5.86728e-10
7.35092e-11
1.33184e-09
1.45468e-09
-1.88831e-10
-2.08472e-09
-2.83206e-09
-2.61473e-09
-1.00654e-09
4.47375e-10
-1.10092e-09
-1.33451e-09
4.37763e-09
9.51563e-09
4.72579e-09
1.32629e-10
-1.8318e-09
-4.40452e-10
1.16714e-09
1.85388e-09
2.36416e-09
2.09522e-09
8.96559e-10
2.14357e-10
2.7343e-10
-9.18033e-11
-6.70181e-10
-6.05218e-10
-7.38317e-10
-1.2841e-09
3.33901e-10
2.6336e-09
2.76068e-09
9.84417e-10
5.0053e-10
1.16143e-09
8.64709e-10
-1.05163e-10
-6.40316e-10
-6.18178e-10
-1.76582e-10
-6.41865e-11
-8.51029e-10
-2.38375e-09
-3.93919e-09
-4.37796e-09
-2.80842e-09
-3.83262e-10
4.8228e-10
-9.1529e-10
-3.25277e-09
-3.1683e-09
-2.33072e-11
5.74902e-09
8.87979e-09
4.05557e-09
-1.33584e-10
1.0633e-11
1.30657e-09
1.98228e-09
2.14299e-09
1.24749e-09
2.47604e-10
1.16142e-09
2.83763e-09
3.08379e-09
2.33793e-09
1.77771e-09
8.28035e-10
-2.03968e-09
-2.873e-09
-9.17412e-10
-4.96054e-10
-1.76678e-10
1.81084e-10
-7.39859e-10
-1.8083e-09
-1.68928e-09
-9.4155e-10
1.77873e-10
8.90528e-10
2.92004e-10
-6.04926e-10
-6.04171e-10
-3.40572e-10
-6.91577e-10
-8.43573e-10
-4.32665e-10
-3.05435e-10
-4.18387e-10
-6.32227e-10
-6.76286e-10
4.03624e-10
1.42249e-09
1.85788e-09
2.019e-09
8.32847e-10
-1.80823e-10
4.35274e-10
1.66397e-09
-1.58767e-10
6.7499e-11
3.72403e-10
3.17245e-10
-1.81932e-10
5.45457e-10
2.13039e-09
2.00532e-09
2.57361e-10
-1.68365e-10
4.79751e-10
-4.41114e-10
-1.07314e-09
-3.38631e-10
-2.91696e-10
-1.31132e-09
-1.08279e-09
1.46248e-10
2.17598e-10
-1.50207e-10
4.1654e-10
1.36144e-09
1.21892e-09
-5.46222e-10
-2.10832e-09
-1.74913e-09
-7.41544e-10
-2.86317e-10
-1.04147e-10
9.24405e-11
1.34188e-10
2.68083e-11
1.59235e-10
3.00411e-10
8.08762e-11
7.58811e-11
1.09016e-10
-8.15969e-11
-2.66627e-10
-2.7816e-10
-8.72494e-11
3.34958e-10
6.37009e-10
-2.70548e-11
-9.88144e-10
-8.93965e-10
-9.31756e-11
-3.26881e-10
-1.80372e-09
-2.88739e-09
-2.66549e-09
-1.85694e-09
-1.32582e-09
-3.0522e-10
1.53682e-09
2.07604e-09
-5.41495e-10
-2.99459e-09
-2.29537e-09
-5.54923e-10
1.7416e-10
-1.02561e-10
-4.24243e-10
-2.1246e-10
1.43967e-10
3.48958e-10
1.87684e-10
-1.34177e-10
-1.16389e-10
2.32987e-10
6.01409e-10
6.74911e-10
3.63633e-10
1.47115e-10
2.71276e-10
4.1243e-10
3.94251e-10
2.66768e-10
9.36695e-11
-1.03607e-10
-3.79025e-09
-2.42803e-09
-2.25087e-09
-1.91214e-09
-1.59876e-09
-2.25757e-09
-3.88762e-09
-4.6323e-09
-3.37011e-09
-1.27388e-09
-5.03704e-10
-2.7983e-09
-7.28388e-09
-1.18862e-08
-1.58643e-08
-2.19109e-08
-3.11512e-08
-4.40971e-08
-5.41675e-08
-4.10812e-08
-3.0047e-09
7.84631e-09
1.20991e-08
2.88488e-08
3.50719e-08
3.39115e-08
2.69887e-08
1.64814e-08
5.53919e-09
4.9862e-09
2.7082e-08
6.07654e-08
6.83034e-08
2.96555e-08
-9.11568e-09
6.49452e-09
1.99833e-08
7.5601e-09
-1.03845e-09
-5.3069e-09
-6.2379e-09
-6.63181e-09
-5.63138e-09
-5.20409e-09
-4.22342e-09
-2.14358e-09
-1.71748e-09
-5.87464e-09
-1.21978e-08
-1.22147e-08
-7.44992e-09
-5.43363e-09
-7.63422e-09
-1.14712e-08
-1.28259e-08
-1.08568e-08
-1.04143e-08
-1.9333e-08
-4.95745e-08
-1.13649e-07
-1.08193e-07
-4.36908e-09
-4.53838e-08
-5.14476e-09
7.9954e-08
1.20623e-07
1.07699e-07
5.62289e-08
1.42509e-08
-7.87616e-10
1.26069e-08
6.59297e-08
1.52255e-07
1.94328e-07
1.08894e-07
-3.9645e-09
3.3348e-08
3.91402e-08
1.27129e-08
-6.18501e-10
3.34992e-09
2.90953e-10
8.61782e-09
1.45926e-08
1.24997e-08
6.01709e-09
4.14642e-09
7.80189e-09
9.6107e-09
1.04185e-08
1.16113e-08
1.13076e-08
1.5294e-08
2.32076e-08
3.0901e-08
3.19425e-08
2.682e-08
4.50122e-08
1.06513e-07
1.83562e-07
1.93132e-07
1.54938e-07
-1.13807e-07
-2.66126e-07
-9.10396e-08
-3.60777e-08
-5.79326e-08
-7.96988e-08
-4.96076e-08
9.82609e-09
2.56255e-08
-2.34272e-08
-9.23056e-08
-1.03513e-07
-4.03846e-08
1.85314e-08
5.91277e-08
1.64102e-07
8.90819e-08
2.57811e-08
6.66403e-09
1.26476e-09
4.52837e-09
6.03573e-09
3.53681e-09
4.93031e-10
3.44064e-10
4.57867e-09
9.48404e-09
1.08753e-08
3.34527e-09
-6.40275e-09
-6.95209e-09
-3.63405e-09
-5.07329e-09
-1.50973e-08
-2.43167e-08
-1.20285e-08
2.69757e-08
7.09841e-08
1.15115e-07
1.51676e-07
-6.29077e-08
-2.88653e-07
-1.09551e-07
-3.94586e-08
-3.56106e-08
-1.68132e-08
2.15818e-08
5.78214e-08
6.30815e-08
3.78266e-08
-3.08887e-09
-4.00017e-08
-4.70221e-08
7.99413e-09
1.08599e-07
1.75387e-07
1.19379e-07
2.9738e-08
2.84314e-09
-1.34105e-09
-1.70159e-09
3.66189e-10
4.23624e-10
-1.05336e-10
2.10747e-10
7.06863e-10
3.39559e-10
-2.10819e-10
-1.30335e-09
-5.78738e-09
-6.54313e-09
-2.83672e-09
-3.57137e-09
-1.2508e-08
-1.9391e-08
-1.26083e-08
3.47484e-09
2.49395e-09
-3.67578e-08
-1.87719e-08
-4.45349e-09
-2.17209e-07
-8.68061e-08
8.17669e-10
-5.67608e-09
-3.75536e-09
1.98872e-09
9.81813e-09
1.33952e-08
9.3127e-09
2.79958e-09
-7.70887e-12
5.64527e-09
1.27707e-08
3.63568e-08
1.00009e-07
1.12304e-07
2.56058e-08
-1.11057e-08
-2.50963e-09
-4.40451e-09
-1.57224e-09
8.62747e-10
6.72589e-10
-1.72478e-10
-2.02553e-09
-6.25056e-09
-6.47086e-09
-2.13652e-09
1.00402e-09
1.33223e-09
-4.72655e-11
-7.83052e-09
-1.77929e-08
-1.69285e-08
-8.12385e-09
-1.58184e-10
-9.75246e-11
-2.62361e-08
-5.90165e-08
-1.2205e-09
-9.2638e-08
-7.34589e-08
1.12988e-09
-3.98868e-10
-4.69151e-10
2.04756e-09
7.66361e-10
1.91536e-10
-2.08569e-10
-3.68348e-09
-9.44295e-09
-6.32489e-09
6.0074e-09
-1.20949e-08
-9.50651e-09
6.00847e-08
3.34129e-08
-3.20914e-08
-9.85581e-09
-4.66944e-09
-2.87788e-09
1.28958e-09
1.54363e-09
-2.21264e-11
1.08218e-09
1.26889e-09
-5.08631e-09
-2.79069e-09
4.30347e-09
1.06965e-08
5.85675e-09
-1.90584e-08
-3.16172e-08
-1.61727e-08
-2.04077e-09
4.22764e-10
1.0768e-09
9.45585e-09
3.84334e-09
1.48383e-09
-1.12285e-08
-3.95772e-08
-1.3111e-08
9.41245e-10
-6.6787e-10
1.30025e-09
5.70269e-09
9.23771e-09
1.14014e-08
8.23419e-09
-5.36712e-09
-2.07151e-08
-1.91233e-08
-1.62982e-08
-3.88988e-08
-1.4005e-08
2.73143e-08
-2.37281e-08
-2.2253e-08
-7.42781e-09
-2.92317e-09
1.36182e-09
2.28713e-09
2.04602e-10
1.61504e-09
1.14185e-08
1.05461e-08
-2.19843e-09
-9.36694e-10
1.03298e-08
2.01377e-08
-6.20119e-09
-2.72455e-08
-1.28629e-08
1.82551e-09
9.79966e-10
1.28355e-09
1.79296e-08
2.22877e-08
5.65308e-09
1.01411e-08
-1.81745e-08
-1.30861e-08
5.42944e-09
2.02585e-09
-7.06117e-10
2.29624e-09
7.56205e-09
1.40513e-08
1.76238e-08
8.11824e-09
-1.24523e-08
-2.44149e-08
-2.09324e-08
-2.45057e-08
-2.90519e-08
3.61497e-09
-7.15575e-09
-3.50042e-09
-1.26256e-08
-2.72127e-09
2.10507e-09
3.02448e-09
1.30963e-09
2.44569e-10
3.79696e-09
1.89925e-08
1.72201e-08
-5.08744e-09
1.0686e-09
1.75086e-08
5.39804e-09
-8.04158e-09
-1.26425e-09
5.30032e-09
1.67276e-09
3.2249e-09
1.59325e-08
1.67768e-08
2.91778e-09
8.53001e-09
-1.54095e-08
-7.1331e-09