/*--------------------------------*- C++ -*----------------------------------*\
| =========                 |                                                 |
| \\      /  F ield         | OpenFOAM: The Open Source CFD Toolbox           |
|  \\    /   O peration     | Version:  5.0                                   |
|   \\  /    A nd           | Web:      www.OpenFOAM.org                      |
|    \\/     M anipulation  |                                                 |
\*---------------------------------------------------------------------------*/
FoamFile
{
    version     2.0;
    format      ascii;
    class       volScalarField;
    location    "50.4676134421789371";
    object      dissUVMean;
}
// * * * * * * * * * * * * * * * * * * * * * * * * * * * * * * * * * * * * * //

dimensions      [0 2 -3 0 0 0 0];

internalField   nonuniform List<scalar> 
60000
(
7.50806e-11
-6.86237e-11
3.22439e-10
7.13193e-10
1.99226e-10
-2.76203e-10
-3.69724e-11
-2.71279e-10
-1.15221e-09
-8.64321e-10
2.64318e-11
8.77956e-11
-2.19701e-11
-1.2008e-10
-3.24491e-10
-5.51016e-10
-6.78261e-10
-1.36508e-09
-3.34996e-09
-6.34299e-09
-1.02177e-08
-1.10946e-08
-6.33163e-09
-1.87683e-09
1.93149e-09
1.25617e-08
2.84138e-08
3.23589e-08
1.64174e-08
1.96278e-09
-3.87025e-09
-5.42166e-09
-1.46529e-09
4.57543e-09
4.18057e-09
3.06641e-09
1.59542e-09
-2.04618e-09
-8.30477e-10
2.32549e-10
3.01714e-09
1.99053e-09
5.39968e-10
-2.73551e-10
-7.68435e-11
4.44883e-10
7.52617e-10
-1.38125e-10
-2.12615e-09
-2.00866e-09
9.39096e-10
2.48996e-09
1.14868e-09
-2.59886e-10
-8.89253e-10
-8.35062e-10
1.16449e-10
3.69885e-10
-2.92667e-10
-4.5138e-10
-1.40806e-09
-5.36967e-09
-4.08825e-09
3.93573e-11
1.1663e-09
3.13411e-09
7.36215e-09
1.26377e-08
1.31372e-08
5.0304e-09
8.08044e-11
-3.14609e-10
-8.34834e-10
2.11228e-09
8.27203e-09
5.25191e-09
7.69566e-10
4.93937e-10
-1.07048e-09
1.51751e-09
1.01494e-09
1.57546e-09
1.04807e-09
6.97103e-10
2.07752e-10
3.50052e-10
1.21445e-09
2.32691e-09
2.06342e-09
3.1898e-10
2.05323e-10
8.88965e-10
6.41395e-10
1.35944e-10
3.25638e-10
2.37814e-11
7.78593e-11
-5.53104e-10
-1.15874e-09
2.60737e-09
8.54072e-09
7.53395e-09
4.38928e-09
3.85996e-09
5.74966e-10
-3.86073e-09
-7.68267e-09
-9.85726e-09
-8.59661e-09
-4.93923e-09
-6.73698e-10
4.05132e-09
4.78646e-09
9.75908e-10
-2.0708e-09
-6.32281e-10
-1.88373e-11
3.41305e-09
2.53139e-09
4.58951e-11
-1.37311e-10
8.23629e-10
5.62609e-10
-2.68783e-10
-4.41545e-10
-1.43731e-10
9.46978e-10
3.11065e-09
4.6468e-09
2.25057e-09
1.53097e-10
5.32324e-10
3.84916e-10
3.8602e-10
1.19368e-09
5.77881e-10
-1.8127e-10
-1.57012e-09
-3.37511e-09
2.17524e-09
1.17154e-08
1.0392e-08
3.19171e-09
1.66639e-09
-1.90501e-09
-5.45929e-09
-6.1195e-09
-5.33249e-09
-4.17675e-09
-2.61128e-09
2.06685e-10
4.22082e-09
5.94559e-09
3.44297e-09
-1.31801e-09
-2.67504e-09
-6.07004e-10
3.7312e-09
6.21596e-09
1.52963e-09
5.74333e-11
1.05156e-09
1.97889e-09
6.80969e-10
2.8342e-11
4.36366e-11
4.10147e-10
1.8505e-09
5.18534e-09
5.27329e-09
9.45418e-10
9.55331e-10
2.66531e-09
1.74341e-09
7.35054e-10
-2.48876e-10
4.57175e-10
1.32349e-09
-1.85892e-09
-8.6855e-10
1.21065e-08
1.31908e-08
1.74443e-09
1.73883e-09
9.37383e-10
-2.12073e-09
-1.91793e-09
-8.78508e-10
4.46921e-10
1.73559e-09
9.42613e-10
5.34892e-10
1.95179e-09
2.80075e-09
8.65833e-10
-8.41108e-10
8.2911e-10
1.89699e-09
5.0596e-09
3.94586e-09
2.25214e-09
1.68312e-10
2.0073e-09
2.12885e-09
1.29919e-09
1.08715e-09
5.95665e-10
1.70056e-10
2.6709e-09
6.97932e-09
5.07172e-09
6.27941e-10
2.15932e-09
2.53177e-09
-7.248e-10
-2.23456e-09
9.69975e-10
3.92933e-09
2.99363e-09
-2.47128e-09
8.43619e-09
1.91084e-08
5.14725e-09
8.52595e-10
-9.0971e-10
-1.49438e-09
7.73363e-12
1.86744e-10
3.85176e-10
2.23522e-09
4.02431e-09
2.41244e-09
4.65903e-10
4.39592e-10
1.63979e-09
8.16542e-10
4.51817e-10
1.18688e-09
1.77358e-09
4.2868e-09
3.72529e-09
9.83932e-10
1.55715e-11
1.43908e-09
1.75291e-09
2.06596e-09
1.74641e-09
6.95772e-10
2.17863e-10
3.70416e-09
8.07924e-09
4.38848e-09
1.15757e-09
9.32777e-10
-2.71687e-09
-3.41578e-09
1.4351e-09
3.08302e-09
5.11451e-09
1.77639e-09
1.46082e-09
2.14317e-08
1.41577e-08
3.72966e-10
-4.19618e-09
-4.85814e-10
7.16228e-10
2.26941e-10
6.98366e-11
2.03999e-10
1.69681e-09
4.32128e-09
4.49943e-09
1.9442e-09
3.13122e-10
1.61029e-09
1.25053e-09
4.62657e-10
5.96369e-10
2.16294e-09
2.60096e-09
2.03881e-09
-2.38355e-10
1.33552e-10
7.86234e-10
1.44415e-09
2.31154e-09
2.6592e-09
1.92468e-09
8.03955e-10
4.36384e-09
8.41589e-09
3.5417e-09
-1.39151e-09
-4.44457e-09
-1.81429e-09
7.87774e-10
3.87675e-10
3.44807e-09
7.72481e-09
-8.71675e-10
1.30882e-08
2.03648e-08
1.65244e-09
-3.54956e-09
4.6585e-10
4.88133e-10
9.54028e-11
6.19671e-11
6.45538e-11
3.65293e-11
1.30021e-09
4.84787e-09
6.59254e-09
3.31503e-09
3.77945e-10
1.40922e-09
1.32783e-09
3.60667e-10
6.90856e-10
1.31067e-09
1.90704e-09
2.34333e-10
1.85324e-10
6.88538e-10
5.94323e-10
7.9253e-10
2.01741e-09
4.53438e-09
4.52318e-09
4.64323e-10
6.02737e-09
7.04604e-09
-1.54998e-09
-2.90507e-09
-9.5896e-11
-1.44955e-09
-1.63216e-09
8.31555e-10
7.41728e-09
4.57868e-09
2.0413e-09
1.65696e-08
4.23633e-09
-8.48639e-10
4.09201e-10
-1.08639e-10
-4.53629e-11
3.93349e-11
3.27472e-11
-8.04653e-11
3.98388e-11
1.41706e-09
4.56037e-09
5.99745e-09
2.76333e-09
1.42875e-10
9.83811e-10
9.94135e-10
2.40309e-10
5.3629e-10
1.56197e-09
6.88504e-10
-1.58119e-12
1.00242e-09
1.25091e-09
4.52664e-10
-7.98719e-11
1.75821e-09
7.01713e-09
5.09916e-09
2.77531e-10
8.05487e-09
3.97828e-09
4.80838e-10
-7.96038e-10
-2.17095e-09
-1.31618e-09
2.51472e-11
2.97213e-09
7.97159e-09
7.60514e-10
6.33406e-09
5.6831e-09
2.03576e-09
-2.28521e-12
-3.30281e-10
-3.40944e-11
4.6767e-11
1.92422e-11
-2.13561e-10
-2.09579e-10
3.51347e-10
1.35817e-09
2.67852e-09
2.85364e-09
1.11698e-09
-1.50194e-11
3.24907e-10
1.71638e-10
2.16943e-10
1.16478e-09
4.46246e-10
-3.20936e-10
1.2617e-09
1.64052e-09
7.01659e-10
1.45405e-10
6.34327e-11
2.84056e-09
8.19727e-09
1.90748e-09
3.40114e-09
9.80881e-09
4.01941e-09
-4.36558e-10
-1.22777e-09
-6.65745e-10
2.34058e-10
1.08956e-09
4.55179e-09
4.76307e-09
1.34041e-09
3.75762e-09
2.22008e-09
1.93036e-10
1.68364e-11
2.46744e-11
5.39216e-11
1.08305e-10
-1.39253e-10
-3.45467e-10
2.32952e-10
8.86942e-10
8.7306e-10
7.26083e-10
5.9008e-10
1.12985e-10
-2.95881e-10
-1.93018e-10
1.2132e-10
7.53102e-10
1.36939e-10
6.29829e-11
9.17491e-10
1.00464e-09
8.92509e-10
6.80863e-10
3.76402e-10
5.94704e-10
4.21579e-09
5.04148e-09
3.82115e-10
7.78371e-09
7.07825e-09
1.39523e-09
-1.05239e-09
-6.05641e-10
9.89228e-10
1.21867e-09
1.74272e-09
3.94799e-09
2.56666e-09
7.58143e-10
5.33694e-10
8.05791e-10
3.99053e-10
4.65222e-11
5.49208e-11
2.60902e-10
3.74773e-10
-6.60845e-11
3.39298e-11
1.2751e-09
1.62235e-09
7.71067e-10
2.09738e-10
1.06833e-11
-1.48811e-10
-1.38096e-10
1.16334e-11
3.6779e-10
6.34771e-10
6.18465e-10
3.42293e-10
2.34187e-10
6.90451e-10
1.03968e-09
4.68486e-10
3.5944e-10
2.21575e-09
3.90753e-09
9.09161e-10
3.98963e-09
7.20632e-09
2.70786e-09
-1.20725e-09
-3.78726e-10
1.70558e-09
1.27587e-09
1.40509e-09
1.99365e-09
2.36358e-09
6.32133e-10
5.27184e-10
8.49456e-10
4.54368e-10
7.68628e-11
1.17219e-11
2.56126e-10
9.82947e-10
1.10643e-09
4.58446e-11
9.05341e-10
2.82346e-09
2.20663e-09
6.21761e-10
3.20175e-11
2.01499e-11
1.13834e-10
1.38252e-10
8.88557e-11
7.69431e-10
8.28201e-10
3.47988e-10
1.22715e-10
2.15134e-10
7.64506e-10
7.55017e-10
2.12244e-10
1.6523e-09
3.33234e-09
1.01332e-09
2.06948e-09
6.04242e-09
2.61999e-09
-9.80541e-10
1.82935e-11
1.27404e-09
1.1634e-09
8.67661e-10
1.60028e-09
1.38803e-09
1.28545e-09
6.3379e-10
2.00273e-10
-1.98452e-11
6.81444e-11
4.88154e-11
6.80001e-11
1.00021e-09
2.44347e-09
1.64324e-09
9.87512e-11
2.36738e-09
3.63191e-09
1.6408e-09
2.1327e-10
2.81606e-11
1.3349e-10
8.92457e-11
-1.27811e-11
1.57825e-10
3.07137e-10
2.82614e-10
2.12015e-10
-1.03924e-10
-1.37915e-10
6.07895e-10
4.77802e-10
3.79186e-10
1.9525e-09
1.3015e-09
7.31512e-10
3.06132e-09
1.00726e-09
-3.40426e-10
2.29362e-11
-5.53935e-11
9.99681e-10
1.08396e-09
9.35093e-10
1.09449e-09
1.08826e-09
2.52789e-10
-6.01596e-10
8.80052e-11
5.16062e-10
6.51497e-11
-2.17473e-10
5.31914e-10
2.35811e-09
3.33304e-09
1.10799e-09
6.88106e-10
3.62321e-09
3.22235e-09
9.16728e-10
6.40878e-11
1.14838e-10
8.31449e-11
-2.83365e-10
-2.63144e-10
-8.41526e-11
4.12931e-11
1.27186e-10
1.89492e-11
-2.7486e-10
-4.26967e-11
3.42233e-10
-6.59803e-11
5.35856e-10
9.61591e-10
1.42576e-10
-1.27118e-12
-4.6622e-10
-1.34283e-10
-1.13673e-10
-6.22487e-10
1.98553e-10
1.09191e-09
1.00767e-09
1.19284e-09
3.73884e-10
-9.35716e-10
-3.2168e-10
5.32459e-10
1.95893e-10
-9.69984e-11
6.87913e-11
4.60857e-10
1.39155e-09
3.15875e-09
2.97141e-09
4.04871e-10
1.6438e-09
3.76522e-09
2.23849e-09
3.89688e-10
1.44803e-10
1.00598e-10
-2.81828e-10
-4.27903e-10
-5.15459e-11
2.87743e-10
1.80915e-10
-1.28549e-10
-1.7413e-10
-7.22103e-11
1.16416e-10
-1.45725e-10
7.1825e-11
6.37613e-10
-3.90754e-10
-1.30194e-09
-7.17611e-10
-2.59937e-11
-3.45474e-10
-5.8558e-10
3.14821e-11
6.93082e-10
7.8984e-11
-3.64598e-10
-2.42261e-10
4.46834e-10
6.95691e-10
-7.31413e-10
-9.48156e-10
1.18636e-10
3.63603e-10
3.2087e-10
7.40557e-10
2.5308e-09
4.39114e-09
2.25471e-09
5.56793e-11
1.92511e-09
2.73918e-09
1.22902e-09
2.43588e-10
-2.1988e-11
-3.79914e-10
-4.57738e-10
-2.21792e-11
2.99671e-10
-3.03072e-10
-6.41312e-10
-1.9908e-10
1.42979e-10
1.35489e-10
-8.18404e-11
-5.24581e-11
3.56574e-10
-6.20892e-10
-1.13194e-09
-1.46519e-10
-1.53862e-10
-6.12144e-10
-2.1486e-10
3.84008e-10
7.89925e-10
2.08515e-10
-6.05646e-10
5.54415e-11
1.50971e-10
-1.53882e-09
-1.26462e-09
9.86575e-11
-9.21275e-10
-1.18876e-09
1.22941e-10
1.32261e-10
1.03102e-09
4.51367e-09
5.099e-09
1.30108e-09
-1.78288e-10
1.30714e-09
1.6984e-09
7.54246e-10
2.92293e-10
-2.26987e-11
2.25661e-10
4.36874e-10
-4.6359e-10
-8.50153e-10
-3.52734e-11
2.63193e-10
3.13306e-10
2.3109e-10
6.28295e-11
1.28879e-10
-2.83433e-12
-5.7683e-10
-3.75478e-10
1.76484e-10
-5.92956e-11
-1.6841e-10
1.37244e-10
4.30989e-10
6.27351e-10
6.59268e-10
2.33138e-10
-5.96489e-10
-1.36165e-09
-4.70602e-10
-2.48161e-10
-2.57398e-09
-2.75115e-09
-3.40504e-10
8.74595e-10
6.88186e-10
2.696e-10
2.1485e-09
4.99759e-09
3.6484e-09
4.86213e-10
-1.47595e-10
6.50225e-10
7.84492e-10
-1.0763e-11
4.49542e-10
7.36997e-10
-1.6873e-11
-5.63714e-10
-5.00291e-13
3.52853e-10
9.27026e-11
-7.83754e-11
3.29326e-10
4.50737e-10
4.01139e-10
1.42105e-10
-2.93735e-10
-1.56643e-10
2.01431e-10
2.69945e-10
1.2918e-10
2.89577e-10
5.72407e-10
3.4151e-10
1.70981e-10
3.12487e-10
1.96676e-10
9.19729e-11
-3.56101e-10
-1.06285e-09
-6.85106e-10
2.18742e-11
-7.21194e-11
-7.57976e-11
9.56641e-10
1.86156e-09
1.29029e-09
1.86468e-09
2.51849e-09
1.2392e-09
1.70235e-10
4.25035e-11
-2.69931e-11
-7.89802e-11
-5.53311e-12
3.82081e-11
-8.24604e-11
-4.29642e-12
1.28073e-10
9.65843e-11
4.45537e-11
-1.0376e-10
1.14297e-10
5.22495e-10
1.05629e-10
-2.50905e-10
-1.33426e-12
3.22146e-10
4.80318e-10
3.72501e-10
7.51528e-11
-3.71017e-11
2.23882e-10
3.6081e-10
6.11254e-11
-7.40167e-11
5.30019e-11
1.46085e-11
-5.84172e-11
5.31516e-12
5.48297e-11
1.07913e-10
3.12923e-10
5.62385e-10
7.07118e-10
9.3106e-10
8.17661e-10
4.5267e-10
8.5601e-10
8.23361e-10
1.77953e-10
-1.23347e-10
-1.11897e-10
5.34822e-11
-1.36848e-11
-4.02646e-11
5.13055e-11
6.56525e-11
-4.0764e-11
2.53947e-11
2.34449e-10
2.48208e-10
5.6856e-11
6.8359e-11
1.32329e-10
9.76993e-11
3.34062e-11
-1.2124e-10
8.29643e-11
5.08592e-10
5.64256e-10
2.90299e-10
9.35656e-11
1.20229e-10
1.18532e-10
-8.25866e-12
-1.03298e-10
-1.31313e-10
-1.1114e-10
-6.50652e-11
-2.7734e-11
5.06071e-11
2.3406e-10
3.13696e-10
2.67314e-10
5.16291e-10
5.65976e-10
1.35671e-10
1.55198e-10
3.85484e-10
2.3663e-10
3.88202e-11
4.91214e-11
5.50183e-11
1.01658e-10
1.00546e-11
2.64739e-12
-3.90286e-11
-1.94121e-10
-1.51688e-10
6.85493e-11
1.97751e-10
2.88438e-10
3.53193e-10
2.63589e-10
5.43465e-11
-5.33847e-11
-7.96253e-11
-1.04894e-10
5.28972e-11
2.33097e-10
1.65253e-10
4.84517e-11
7.72935e-11
6.87378e-11
-8.24175e-11
-1.75968e-10
-1.27486e-10
-8.92651e-11
-1.58359e-10
-2.09571e-10
-5.82283e-11
1.78568e-10
2.37318e-10
6.82715e-11
9.51019e-11
3.56029e-10
1.22404e-10
-1.39646e-10
-3.09486e-12
1.15886e-10
5.11559e-11
-2.00344e-11
6.57089e-12
6.39948e-11
7.44933e-11
1.01602e-10
1.13011e-11
-3.02727e-10
-3.74364e-10
-9.71845e-12
1.33315e-10
5.21687e-11
4.1858e-10
7.55348e-10
3.53237e-10
-6.52098e-11
1.36883e-10
3.74883e-10
2.36026e-10
1.83077e-11
-6.20841e-11
-7.5857e-11
-5.89532e-11
5.35868e-12
6.17501e-11
7.87467e-11
7.91281e-11
5.85761e-11
2.16962e-11
2.37174e-12
-2.07793e-12
4.71048e-12
6.20619e-11
1.39635e-10
1.44972e-10
1.57377e-10
6.47822e-11
-1.36553e-10
-1.17162e-10
3.8926e-11
5.57207e-11
-1.40723e-11
-5.66665e-12
-1.23835e-10
-7.63816e-12
1.38801e-10
7.64462e-11
-4.94047e-11
-8.01636e-11
-2.50278e-11
-2.08359e-11
-1.60215e-10
-1.01977e-10
2.6809e-10
4.39702e-10
2.42047e-10
8.71474e-11
1.59344e-10
2.60366e-10
2.4356e-10
1.57884e-10
6.36924e-11
-6.55851e-12
-2.70836e-11
-2.674e-11
1.57376e-11
1.5506e-10
2.53777e-10
1.58775e-10
-4.28884e-11
-1.57343e-10
-1.07797e-10
3.19259e-11
2.01286e-10
2.69839e-10
8.59384e-11
-3.51916e-11
2.58094e-11
3.49758e-11
1.40136e-11
8.95584e-11
1.30436e-10
-3.16969e-10
1.45802e-11
-1.9921e-10
-7.27188e-10
-4.93799e-10
9.89367e-10
1.69016e-09
8.76438e-10
-4.32914e-10
-1.11388e-09
-1.46686e-09
-1.77604e-09
-1.66414e-09
-6.62178e-10
1.61148e-09
5.07306e-09
8.78726e-09
1.09807e-08
7.29001e-09
5.14271e-10
-5.90865e-10
-4.97536e-09
-6.81828e-09
-2.68725e-09
1.19193e-09
4.11053e-09
5.21474e-09
1.74234e-09
-3.82582e-09
-8.87735e-09
-8.04582e-09
2.87167e-09
1.97755e-08
2.93263e-08
1.36693e-08
-4.55027e-09
7.02491e-09
4.36891e-09
3.34819e-10
-3.93022e-10
-6.01971e-11
6.21933e-11
-1.85888e-10
-5.46337e-10
-4.00139e-10
6.61349e-10
1.73732e-09
1.66231e-09
3.49631e-10
-4.27095e-10
-6.81312e-10
-4.70979e-10
-2.83384e-10
-2.22486e-10
2.77244e-10
1.60337e-09
2.9612e-09
5.04522e-09
8.37549e-09
6.11724e-09
1.73062e-09
6.05703e-09
3.97152e-10
-4.7695e-09
-1.3773e-09
2.03876e-09
4.18919e-09
3.28767e-09
-1.16779e-10
-1.75863e-09
-1.15822e-09
4.13695e-10
3.89143e-09
1.15487e-08
2.40849e-08
1.65575e-08
-1.37041e-09
1.17925e-08
3.92525e-09
-3.56651e-10
6.14836e-12
1.34623e-10
9.93684e-11
1.86897e-10
1.93464e-10
-1.30956e-10
-6.19121e-10
-6.41251e-10
6.93233e-10
2.00791e-09
1.94056e-09
1.37627e-09
7.2238e-10
1.66269e-10
-7.2193e-11
-1.48562e-10
-1.39688e-09
-3.41985e-09
-2.8376e-09
-3.90589e-09
-5.62843e-09
1.10042e-08
1.9148e-08
7.73075e-09
3.56639e-09
-9.60589e-10
-5.2017e-09
-5.52013e-09
-2.89853e-09
6.97798e-10
3.0287e-09
1.71551e-09
-2.40138e-09
-6.59761e-09
-6.94275e-09
1.73369e-09
1.60718e-09
3.65062e-09
8.98741e-09
1.25518e-09
6.37361e-10
4.12955e-10
2.39427e-10
1.18581e-10
-1.67895e-10
-5.31413e-10
-1.06142e-09
-1.35148e-09
3.11157e-10
2.8447e-09
2.80616e-09
1.77116e-09
8.6168e-10
-8.04453e-11
-5.5371e-10
-4.4597e-10
-1.42781e-09
-3.65362e-09
-3.5723e-09
-2.10063e-09
-4.7413e-09
1.15507e-08
2.58358e-08
9.00345e-09
3.04552e-09
-7.91564e-10
-5.10633e-09
-5.01559e-09
-2.13235e-09
1.25778e-09
3.20627e-09
2.36471e-09
-3.05784e-10
-3.54539e-09
-6.71618e-09
-7.74056e-09
-3.72703e-09
2.05536e-09
1.22084e-08
6.02888e-09
2.7255e-09
6.78366e-10
2.51931e-10
-6.16067e-11
-4.32329e-11
-3.2835e-11
-2.48573e-10
-5.87722e-10
-1.92217e-10
2.30699e-09
2.75761e-09
1.27747e-09
5.08678e-10
-3.99859e-10
-6.98408e-10
4.29817e-10
1.13426e-10
-1.27696e-09
-9.29194e-10
4.05492e-09
1.26263e-09
3.78883e-09
2.35311e-08
8.50316e-09
1.87416e-09
2.43857e-09
-2.74377e-10
-4.63685e-10
5.63817e-11
1.57589e-10
4.85279e-10
5.82981e-10
6.01808e-11
-8.87578e-10
-2.05716e-09
-1.00641e-09
-5.45795e-10
4.17331e-10
1.04007e-08
1.20533e-08
7.78151e-09
1.65576e-09
3.34028e-10
-3.78938e-10
7.88351e-11
8.06076e-10
8.969e-10
4.31269e-10
9.3091e-11
1.0678e-09
2.88106e-09
1.28579e-09
-4.17841e-10
-1.16149e-09
-6.07945e-10
6.64669e-10
-4.41712e-10
-7.52557e-10
1.2941e-10
4.54175e-09
7.57984e-09
-4.68988e-10
1.55846e-08
1.0951e-08
1.82465e-09
4.72619e-10
-4.46221e-10
4.81563e-10
6.00951e-10
-8.12208e-11
-6.67711e-10
-3.84729e-10
3.39701e-10
5.24483e-10
3.3039e-11
1.07175e-09
4.63969e-09
1.46786e-09
2.94937e-09
1.2673e-08
1.16308e-08
5.3967e-09
1.35326e-09
-4.66909e-10
-1.07022e-10
1.29496e-09
2.43364e-09
1.651e-09
1.21476e-09
1.33049e-09
2.25916e-09
1.85672e-09
-8.92612e-10
-1.66849e-09
-1.15976e-10
-4.49228e-10
-2.14942e-09
-1.16441e-09
2.11303e-10
1.78261e-09
6.83672e-09
3.36719e-10
6.81723e-09
1.27359e-08
3.12624e-09
-3.55829e-09
-2.01587e-09
-2.33479e-11
-1.157e-10
-7.11263e-10
-9.77388e-10
-2.41373e-10
1.6027e-09
2.91186e-09
1.88383e-09
5.02785e-10
2.56115e-09
4.08983e-09
4.38972e-10
5.79811e-09
8.49632e-09
1.02752e-08
4.39377e-09
2.49304e-10
-5.2996e-10
1.12113e-09
3.44432e-09
4.39201e-09
1.96305e-09
3.65765e-09
3.75637e-09
2.03075e-09
-5.1755e-10
-1.30509e-09
-8.10407e-12
-1.87284e-09
-2.32096e-09
-5.85257e-10
3.54754e-10
3.0645e-10
3.76448e-09
2.11461e-09
1.0551e-09
1.21363e-08
3.01607e-09
-4.7003e-09
-1.58238e-09
7.12746e-11
-7.27937e-11
-3.97061e-10
-7.63002e-10
-7.83088e-10
9.08743e-10
4.5127e-09
5.64109e-09
2.63006e-09
1.03683e-09
2.53143e-09
2.25038e-09
1.46123e-09
3.29446e-09
1.04223e-08
8.97957e-09
1.74285e-09
-9.80407e-10
3.13933e-10
2.44333e-09
4.70407e-09
4.66309e-09
2.67218e-09
8.49598e-09
5.76761e-09
1.25344e-09
3.54287e-10
-3.49501e-10
-2.10113e-09
-8.6553e-10
2.92065e-10
4.18282e-10
-2.94385e-10
8.14412e-10
3.00408e-09
-6.57542e-10
9.27538e-09
1.99098e-09
-3.46939e-09
-6.08086e-10
1.12447e-10
-4.27107e-11
-4.86878e-11
-1.61958e-10
-4.7996e-10
-2.15114e-10
2.03857e-09
5.4091e-09
5.09359e-09
1.98472e-09
9.27084e-10
1.97202e-09
2.97273e-09
3.40362e-09
5.05994e-09
1.03725e-08
2.41794e-09
-1.47659e-09
2.18745e-10
6.68675e-10
1.52575e-09
4.44537e-09
3.30884e-09
5.44796e-09
1.32856e-08
6.5713e-09
1.87888e-09
-6.23121e-11
-1.96655e-10
8.64341e-10
6.57796e-10
3.6601e-10
-7.54326e-10
-9.30025e-10
2.43225e-09
-6.51848e-11
4.80239e-09
1.04444e-09
-1.13677e-09
-1.33601e-10
-1.2553e-10
-2.42602e-11
1.65221e-10
2.44352e-10
-7.32536e-11
-3.58278e-10
3.66733e-10
2.08872e-09
3.40541e-09
2.41694e-09
9.10785e-10
7.87083e-10
3.94179e-09
5.74513e-09
1.98939e-09
5.60142e-09
2.13483e-09
-3.68952e-10
1.4991e-10
-7.24224e-10
-8.87849e-10
1.32585e-09
3.71156e-09
1.89169e-09
9.66779e-09
1.36706e-08
3.79079e-09
1.01743e-09
1.947e-09
1.45304e-09
5.63982e-10
5.47092e-11
-7.68804e-10
-9.47159e-10
9.87357e-10
5.49577e-10
5.69178e-10
5.83283e-10
-2.51922e-10
-6.43761e-10
-1.83148e-10
4.49428e-11
2.4286e-10
4.68251e-10
3.40409e-10
-2.73397e-10
-8.7367e-11
8.43201e-10
1.30112e-09
1.11533e-09
6.91535e-10
4.57725e-10
2.7185e-09
5.61492e-09
2.91526e-09
-1.62637e-09
1.88693e-09
2.11659e-09
-2.49908e-10
-1.68343e-09
-1.4676e-09
-2.17792e-10
1.35717e-09
1.33519e-09
3.02379e-09
1.13393e-08
5.91758e-09
7.56364e-10
1.93259e-09
8.98574e-10
-3.09943e-10
-1.57897e-10
7.47905e-11
1.83632e-10
2.42806e-10
3.47667e-11
-1.20432e-09
-1.04209e-09
-7.87507e-10
-1.8757e-10
-2.13336e-11
5.03676e-11
2.0233e-10
4.89216e-10
9.16412e-10
4.14244e-10
-2.30215e-10
9.85434e-10
1.72046e-09
9.41615e-10
2.91135e-10
5.36188e-10
8.53258e-10
2.11762e-09
3.35697e-09
-4.3833e-09
-7.03462e-11
2.89426e-09
-4.37484e-10
-1.62001e-09
-8.43853e-10
4.39863e-11
9.40512e-10
3.92101e-10
8.93229e-10
6.15469e-09
6.19715e-09
8.75077e-10
3.21229e-10
-6.50233e-10
-9.39809e-10
3.71006e-11
1.00391e-09
1.54675e-09
6.47965e-10
-6.42903e-10
-1.25882e-09
-4.61216e-10
4.88908e-10
1.71492e-10
-1.55402e-10
-6.71347e-12
1.49985e-10
3.36613e-10
1.51479e-09
2.23571e-09
4.05902e-10
6.93937e-10
2.60249e-09
2.15367e-09
5.11414e-10
3.48235e-10
3.42155e-10
1.75205e-10
2.75165e-10
-1.55466e-09
1.79803e-11
9.17103e-10
-1.0791e-10
-2.6658e-10
-4.86423e-11
3.41782e-10
1.45864e-09
9.05273e-10
-1.33964e-10
3.52609e-09
6.0382e-09
1.91266e-09
-8.92733e-10
-1.37788e-09
-7.7363e-10
9.26581e-11
1.23892e-09
2.06311e-09
1.12124e-09
-4.93759e-10
2.0762e-10
1.00448e-09
2.63489e-10
-8.39801e-10
-6.2069e-10
2.87286e-10
2.33868e-10
-2.72198e-11
1.39379e-09
3.95466e-09
2.76989e-09
3.5548e-10
2.08348e-09
2.80685e-09
1.41314e-09
2.00178e-10
3.5954e-10
8.94339e-11
-5.94984e-10
-1.31571e-10
1.34991e-10
-5.35353e-11
1.15504e-10
5.95524e-11
-5.91513e-11
2.53786e-10
1.05615e-09
1.23824e-09
-2.49163e-10
1.57147e-09
5.16227e-09
2.44392e-09
-1.01493e-09
-6.89895e-10
-1.47145e-10
-2.03514e-10
7.87208e-10
2.05103e-09
1.26843e-09
6.75846e-11
5.44458e-10
-1.17641e-10
-2.70929e-09
-2.13031e-09
4.43406e-10
3.63497e-10
-8.62709e-10
-7.96214e-10
8.41403e-10
3.5738e-09
4.50681e-09
1.27817e-09
9.56963e-10
2.57295e-09
1.81655e-09
6.53287e-10
1.74737e-10
-1.1955e-11
-2.21251e-10
-2.64869e-11
5.15889e-11
-2.16813e-11
-4.76274e-12
1.10822e-11
-3.07727e-11
7.61866e-11
4.71589e-10
6.81403e-10
4.03687e-12
5.85055e-10
3.24819e-09
1.63043e-09
-5.16936e-10
1.38797e-10
2.30913e-10
-1.95628e-10
1.94426e-10
1.15173e-09
1.70821e-09
5.3556e-10
-1.23556e-09
-3.76531e-09
-3.10816e-09
2.10031e-10
5.80867e-11
-1.80903e-09
-1.38866e-09
-3.4506e-10
4.1238e-11
1.82326e-09
4.05018e-09
2.68019e-09
3.29704e-10
1.75972e-09
2.17812e-09
1.09013e-09
3.59628e-10
4.03801e-11
-2.58116e-10
8.33446e-11
2.61841e-10
8.65828e-11
-2.04181e-11
4.02197e-11
1.84562e-10
1.50123e-10
1.92231e-10
6.3331e-10
2.46323e-10
4.28814e-11
1.05834e-09
1.16151e-10
-5.71371e-10
4.23362e-10
1.8093e-10
-3.89913e-10
3.41946e-11
5.25519e-10
6.8955e-10
-2.79511e-10
-2.34713e-09
-2.41956e-09
-1.77539e-10
-4.50911e-10
-2.58364e-09
-2.09044e-09
-4.46583e-12
9.95091e-10
2.67951e-10
2.16002e-10
3.20933e-09
4.06711e-09
1.09802e-09
3.75001e-10
1.80276e-09
1.68425e-09
8.41916e-10
4.63745e-10
-3.65754e-11
1.87675e-10
3.3133e-10
2.72059e-10
1.83684e-10
-3.23621e-11
-9.34868e-11
1.35241e-10
1.3764e-10
6.89623e-10
7.36041e-10
-6.95481e-10
-8.948e-10
-2.13571e-10
2.52658e-10
4.18707e-11
-6.89793e-10
-5.37564e-10
4.27865e-10
7.40389e-10
-1.21141e-10
-1.05559e-09
-8.36139e-10
2.58668e-10
-7.64282e-10
-2.78435e-09
-1.53299e-09
6.10318e-11
-2.55733e-10
3.60615e-10
7.95628e-10
-1.31437e-11
1.6704e-09
4.55233e-09
2.98301e-09
2.84822e-10
3.88926e-10
1.30809e-09
1.2352e-09
4.4665e-10
4.3772e-10
6.32625e-10
5.94291e-10
1.62126e-10
-1.03942e-11
1.8722e-10
-1.77421e-11
-1.7762e-10
6.24836e-11
3.67985e-10
3.91493e-10
-8.99418e-10
-8.472e-10
5.97944e-10
2.83625e-10
-3.75366e-10
-2.03077e-10
-6.60462e-11
1.27049e-10
5.15355e-10
1.9294e-10
-2.72534e-10
-1.08733e-10
-9.10885e-10
-1.81042e-09
-5.68075e-10
-2.51119e-10
-1.55062e-09
-6.46101e-10
1.05868e-09
5.29564e-10
-3.87208e-10
6.90762e-10
3.06768e-09
3.32723e-09
9.49284e-10
-4.99038e-11
3.91848e-10
6.09416e-10
1.46296e-11
2.43848e-10
5.96866e-10
3.37782e-10
-1.33226e-10
-7.05925e-13
3.65555e-10
3.33037e-10
-1.41956e-10
-5.00612e-12
4.83214e-10
3.27992e-11
-3.07949e-10
1.75264e-10
2.26318e-10
-2.85694e-11
1.55811e-10
3.43083e-10
1.94183e-10
-3.72395e-11
9.98606e-11
4.06249e-10
2.16532e-10
-3.59554e-10
-5.12408e-10
-1.88502e-11
-3.12965e-10
-1.09047e-09
-8.08295e-10
-2.11829e-10
4.95517e-10
1.79123e-09
1.24818e-09
2.31193e-10
1.28687e-09
1.93402e-09
8.19033e-10
-3.32043e-11
1.66328e-10
1.78336e-10
-1.17437e-11
-9.96692e-13
1.62086e-11
1.95089e-11
7.66526e-11
5.75326e-11
1.47499e-10
5.19967e-10
4.95182e-10
3.91583e-11
2.53827e-10
3.40458e-10
9.88233e-12
1.98262e-10
3.85058e-10
2.1056e-10
1.57046e-10
3.57417e-10
4.16158e-10
1.64069e-10
-9.45455e-11
-5.05073e-11
9.86411e-11
6.28537e-11
5.05824e-11
1.96251e-12
-2.43429e-10
-2.99412e-10
-5.91068e-11
5.09712e-11
6.84658e-11
8.99945e-10
2.08988e-09
1.00609e-09
-6.16063e-11
7.16332e-10
9.78614e-10
3.55385e-10
5.46717e-11
3.64534e-11
-1.42503e-10
-1.61544e-10
5.0686e-12
2.31519e-10
2.11248e-10
-1.80892e-11
2.01168e-11
3.38009e-10
5.45499e-10
2.64784e-10
-1.18384e-10
2.10222e-10
5.13814e-10
2.64179e-10
-3.46634e-11
-1.34356e-10
-8.89804e-11
1.33283e-10
3.4982e-10
3.1019e-10
1.08569e-10
-3.9961e-11
-7.37187e-11
-7.71318e-11
-1.11955e-10
-1.70897e-10
-1.65623e-10
-9.07104e-11
-2.5289e-11
-1.53653e-11
-7.15457e-11
2.82922e-10
9.36483e-10
8.08991e-10
-1.2318e-10
-3.44427e-10
3.25358e-10
5.49167e-10
2.52944e-10
1.87781e-12
1.44783e-10
7.3036e-11
-2.32089e-11
3.93443e-11
1.29045e-10
4.66236e-12
-2.35337e-10
-2.44785e-10
-1.39433e-11
1.83134e-10
2.05445e-10
2.85097e-10
3.85328e-10
1.62515e-10
7.93373e-13
1.126e-10
1.60177e-10
8.11494e-12
-4.22781e-11
1.06969e-10
1.29084e-10
-6.39758e-11
-2.00342e-10
-1.25407e-10
2.10299e-11
7.17928e-11
-6.97497e-11
-2.35201e-10
-1.30486e-10
1.00839e-10
7.69121e-11
1.59287e-11
2.78885e-10
1.38557e-10
-2.40912e-10
-2.31192e-10
-6.72502e-11
8.4423e-11
1.32161e-10
1.2917e-10
2.4695e-10
1.79131e-10
1.06316e-10
6.57936e-11
-5.07494e-11
-2.23292e-10
-2.94832e-10
-1.71655e-10
1.00467e-10
1.49774e-10
5.78686e-11
2.59313e-10
3.16963e-10
3.17162e-11
9.12467e-11
4.88595e-10
5.82619e-10
2.6494e-10
-4.85591e-11
-7.99787e-11
4.28799e-11
1.11815e-10
8.64787e-11
5.67337e-11
1.12599e-10
1.72042e-10
1.42246e-10
5.82336e-11
-2.48595e-11
-2.88276e-11
8.0397e-11
9.00768e-11
-9.49762e-12
6.26075e-11
7.86859e-11
-5.12374e-13
-2.70566e-11
9.73174e-12
1.11968e-10
2.20145e-10
7.73614e-11
6.51849e-11
1.15511e-10
9.37063e-11
-4.0697e-12
-3.97496e-11
-5.97821e-11
-1.26333e-10
-1.40531e-10
-4.04687e-11
8.43768e-11
1.65757e-10
1.84151e-10
1.08767e-10
5.76493e-11
1.02777e-10
1.9862e-10
2.77982e-10
2.70507e-10
1.78247e-10
4.80412e-11
-9.47994e-11
-1.31758e-10
2.50712e-11
1.60113e-10
1.10341e-10
-9.54288e-12
-8.65689e-11
-1.42629e-10
-1.08245e-10
1.25567e-10
3.27277e-10
1.62401e-10
-1.02867e-10
-2.36841e-11
1.57191e-10
1.4435e-10
3.95896e-11
2.41833e-11
8.07634e-11
-2.88186e-10
-6.25657e-10
-8.31197e-10
-1.33074e-09
-1.05626e-09
8.37686e-11
9.49811e-10
4.9502e-10
-6.33756e-10
-1.68715e-09
-3.01376e-09
-4.38899e-09
-4.82511e-09
-3.88149e-09
-8.73325e-10
1.16612e-09
3.22624e-09
9.26193e-09
2.11411e-08
2.34179e-08
6.63879e-09
1.33637e-09
-9.63379e-10
-3.20373e-09
-2.27038e-09
-1.7372e-09
-2.64841e-09
-5.82031e-09
-9.89118e-09
-9.59687e-09
1.18998e-09
1.707e-08
2.29542e-08
1.37015e-08
2.01773e-09
4.1599e-10
2.62844e-09
1.4608e-09
4.44122e-11
-3.25591e-10
-3.74572e-10
-4.08228e-10
-7.24745e-10
-1.4746e-09
-1.23167e-09
-1.8238e-10
4.41308e-10
3.03046e-10
-2.65334e-10
-7.18389e-10
-1.01573e-09
-1.25167e-09
-1.22891e-09
-7.32711e-10
1.67032e-10
9.40028e-10
9.7633e-10
1.12982e-09
4.33129e-09
1.30893e-08
1.45502e-08
3.19108e-09
4.12089e-09
-1.53836e-09
-3.54171e-09
-6.1609e-10
-9.701e-10
-2.92502e-09
-3.63343e-09
-2.98768e-09
-6.53652e-10
4.24797e-09
1.07726e-08
1.49404e-08
1.2746e-08
3.70646e-09
-7.86853e-10
3.54735e-09
3.19782e-09
5.78405e-10
6.42094e-10
4.6677e-10
8.19087e-10
5.91679e-10
3.17272e-10
2.12367e-10
-7.35674e-11
-3.09153e-10
-1.79379e-10
3.42945e-10
1.27396e-09
1.90706e-09
1.74703e-09
8.27764e-10
-4.26249e-10
-1.60028e-09
-1.45158e-09
-9.0888e-11
-1.52219e-09
-6.91332e-09
-8.81801e-09
-6.06277e-09
8.03466e-09
1.26767e-08
2.80495e-09
1.01242e-09
-2.72624e-10
-6.63787e-10
1.67627e-09
3.66255e-09
1.99484e-09
-2.53319e-09
-6.29617e-09
-6.41925e-09
-3.8867e-09
-1.78913e-09
-1.51803e-09
9.41614e-10
5.8544e-09
3.60271e-09
2.51623e-09
8.24983e-10
1.0002e-09
6.33068e-10
1.87498e-10
5.58292e-11
-1.96358e-10
-4.81435e-10
-4.13443e-10
-8.34584e-11
7.39431e-10
1.41689e-09
1.11673e-09
-3.6803e-11
-1.55666e-09
-3.19119e-09
-3.11316e-09
-3.71249e-10
8.88616e-10
-1.67832e-09
-5.89389e-09
-7.54393e-09
7.71797e-09
2.15917e-08
6.95451e-09
1.67556e-09
-9.02357e-10
-2.41877e-09
-1.12229e-10
2.38812e-09
1.68554e-09
-1.37786e-09
-4.41416e-09
-6.02548e-09
-6.29797e-09
-5.50778e-09
-2.82074e-09
9.62514e-10
6.9864e-09
8.22087e-09
6.83747e-09
1.27066e-09
8.06971e-10
4.71033e-10
4.43128e-11
1.64931e-10
1.72387e-10
-1.21305e-10
-3.26024e-11
1.9587e-10
3.46195e-10
6.32188e-10
5.06893e-10
1.82344e-11
-6.16206e-10
-1.9228e-09
-2.41942e-09
-3.52641e-10
9.19039e-10
1.51349e-09
4.4852e-09
1.63111e-09
1.71057e-09
2.05542e-08
8.26176e-09
1.39052e-09
2.3454e-09
2.19192e-10
-2.50817e-10
7.10009e-10
8.03182e-10
-5.25778e-11
-5.37956e-10
-3.68617e-10
-2.6322e-10
-7.49464e-10
-1.26115e-09
2.85731e-12
4.58665e-09
1.18921e-08
1.40648e-08
3.79799e-09
7.74243e-10
4.08595e-10
-2.87422e-11
1.07374e-10
3.83107e-10
1.59873e-10
9.48269e-11
6.78632e-10
6.53178e-10
2.52143e-10
1.1383e-10
1.14448e-10
-4.40941e-10
-1.87352e-09
-1.89728e-09
-5.4721e-11
7.12595e-10
8.64916e-10
4.30572e-09
6.9666e-09
5.88972e-11
1.15929e-08
9.76562e-09
8.15897e-10
2.24907e-09
1.95091e-09
4.94699e-10
-3.0616e-10
-4.36673e-10
-3.36887e-10
4.42084e-10
1.98943e-09
3.30971e-09
3.87084e-09
2.51486e-09
4.02083e-10
2.18846e-10
9.16934e-09
1.72602e-08
1.07602e-08
1.49283e-09
4.82736e-10
1.11669e-10
5.41723e-11
4.43414e-10
7.27879e-10
5.38954e-10
3.69878e-10
8.36691e-10
5.35509e-10
1.2642e-10
2.72986e-10
-5.1822e-10
-1.89538e-09
-8.12765e-10
6.23456e-11
1.91332e-10
6.54067e-10
1.55239e-10
1.12623e-09
3.68674e-10
2.8599e-09
7.79385e-09
2.0528e-09
-6.14674e-10
4.85556e-10
5.08424e-10
-5.45359e-10
-1.25312e-09
-1.26691e-09
-2.35331e-10
2.1812e-09
4.06839e-09
4.21674e-09
3.91031e-09
2.87153e-09
6.40679e-10
2.02014e-09
1.0453e-08
1.89745e-08
4.48306e-09
6.53297e-10
2.68802e-10
8.15288e-11
3.39236e-10
8.48721e-10
1.5055e-09
9.95489e-10
2.43284e-10
5.28039e-10
7.67125e-10
1.15945e-09
2.57579e-10
-7.29088e-10
4.74594e-10
9.86975e-12
-2.78223e-12
2.6771e-10
-2.02039e-09
-2.07431e-09
5.92011e-10
-1.10779e-09
4.80774e-09
2.23885e-09
-2.18998e-09
-8.46417e-10
-7.80507e-11
-5.15627e-10
-9.79769e-10
-1.38751e-09
-1.16341e-09
1.35294e-09
5.09894e-09
5.55551e-09
3.90401e-09
3.72833e-09
4.12977e-09
-1.2981e-10
1.61295e-09
1.97625e-08
1.03274e-08
1.1906e-09
1.20752e-10
2.21052e-10
2.6858e-10
3.64119e-10
9.40658e-10
2.28235e-09
1.83896e-09
1.15987e-10
8.07564e-10
2.28456e-09
1.55849e-09
6.38032e-10
6.20994e-10
-2.7715e-10
1.28091e-10
-2.22233e-10
-2.90676e-09
-1.87961e-09
9.84118e-10
-7.94711e-10
4.06509e-09
1.36733e-09
-1.95407e-09
-9.44459e-10
-2.8353e-10
-1.90764e-10
-3.49697e-10
-6.23187e-10
-9.11828e-10
-2.93506e-10
2.89687e-09
5.75764e-09
4.3401e-09
2.83881e-09
5.27534e-09
4.49825e-09
6.07736e-10
1.15468e-08
1.39413e-08
1.8494e-09
5.72792e-12
6.33624e-10
5.62933e-10
2.60194e-10
1.75022e-10
1.72474e-09
4.85129e-09
2.09364e-09
-2.03067e-10
2.21938e-09
2.24318e-09
1.41945e-09
2.77914e-10
-5.5126e-10
2.17427e-10
-6.36465e-10
-2.96636e-09
-1.35229e-09