/*--------------------------------*- C++ -*----------------------------------*\
| =========                 |                                                 |
| \\      /  F ield         | OpenFOAM: The Open Source CFD Toolbox           |
|  \\    /   O peration     | Version:  5.0                                   |
|   \\  /    A nd           | Web:      www.OpenFOAM.org                      |
|    \\/     M anipulation  |                                                 |
\*---------------------------------------------------------------------------*/
FoamFile
{
    version     2.0;
    format      ascii;
    class       volScalarField;
    location    "50.4676134421789371";
    object      dissUW;
}
// * * * * * * * * * * * * * * * * * * * * * * * * * * * * * * * * * * * * * //

dimensions      [0 2 -3 0 0 0 0];

internalField   nonuniform List<scalar> 
60000
(
-3.90415e-08
4.87055e-09
1.57257e-08
-3.10185e-09
-1.93685e-08
-4.73353e-09
1.34109e-08
1.20599e-08
-1.97313e-08
-7.38478e-08
-8.83152e-08
-5.14976e-08
-1.51193e-08
-8.48177e-10
1.25725e-08
3.52167e-08
5.68416e-08
8.12916e-08
1.2248e-07
1.56081e-07
1.06178e-07
-8.29218e-08
-2.9999e-07
-3.97033e-07
-3.79006e-07
-2.95495e-07
-2.27205e-07
-2.05708e-07
-1.46894e-07
-4.16988e-08
3.96105e-08
1.34253e-07
2.25506e-07
2.50793e-07
1.70511e-07
2.72888e-08
-3.44925e-09
-2.03154e-08
-7.98304e-08
-8.14117e-08
-2.19785e-08
-7.46486e-09
2.03481e-09
2.32395e-09
-8.15242e-10
-3.91886e-09
-1.24658e-09
5.50855e-11
-7.74897e-09
-2.91691e-08
-4.19389e-08
-3.06601e-08
-9.22969e-09
6.13677e-10
3.67414e-09
1.38124e-08
2.17815e-08
1.7615e-08
9.82117e-09
2.28446e-09
-2.83441e-09
-1.37869e-08
-5.58162e-08
-7.35688e-08
-4.74098e-08
-5.72318e-09
2.68495e-08
3.85356e-08
2.63939e-08
6.40918e-09
1.05355e-09
2.36437e-09
5.7263e-09
1.10252e-08
1.17485e-08
9.77576e-09
1.09187e-09
-9.07551e-10
-8.38524e-09
-2.489e-08
-2.02372e-09
-3.6456e-09
-9.72479e-10
4.51813e-10
-4.36824e-10
1.92613e-09
-5.08533e-09
-8.49071e-09
-5.95725e-09
1.55455e-09
1.27157e-09
-5.93885e-10
1.04619e-09
1.06748e-09
-1.71997e-09
-1.9588e-09
-2.10316e-09
-1.35273e-09
3.01379e-09
6.26167e-09
1.09796e-08
3.82628e-08
5.93137e-08
5.13027e-08
2.71401e-08
-1.38628e-08
-5.3818e-08
-6.98989e-08
-5.60435e-08
-2.81513e-08
1.35744e-10
2.61309e-08
3.12318e-08
2.08029e-08
9.41379e-09
2.65242e-09
-2.24992e-09
-2.04392e-08
-1.42166e-08
2.13351e-10
3.44526e-09
3.57641e-09
3.90094e-09
9.99523e-10
9.09212e-11
3.58111e-09
-1.4268e-09
-1.55798e-08
-2.05621e-08
-8.41035e-09
5.95745e-09
5.38397e-09
5.5979e-09
4.26518e-09
-2.21618e-09
-4.81895e-09
-3.46928e-09
-2.82287e-09
-1.7143e-09
-1.13761e-08
-2.08753e-08
-4.64094e-09
2.42745e-08
2.8837e-08
1.95179e-08
-3.53167e-09
-2.66763e-08
-3.44774e-08
-3.01803e-08
-2.12489e-08
-8.43349e-09
1.00943e-08
2.35958e-08
1.91524e-08
1.88141e-09
-7.56243e-09
-1.04029e-08
-2.22762e-08
-2.93058e-08
-9.43407e-09
-1.98695e-09
-1.6528e-09
-2.563e-09
1.02985e-09
-4.38562e-12
8.01355e-10
2.32959e-09
-7.88202e-09
-2.18967e-08
-2.24589e-08
-5.14726e-10
1.56531e-09
-4.79176e-09
2.13902e-10
1.98232e-09
-3.11822e-11
1.34294e-09
-4.3937e-10
8.96703e-10
-3.79133e-09
-3.18042e-08
-3.28874e-08
-5.10035e-09
1.59459e-09
3.67768e-09
1.54747e-09
-1.83187e-09
-1.38814e-09
-7.09841e-11
1.61205e-09
1.19458e-09
2.28489e-09
9.58148e-09
1.65606e-08
1.00468e-08
-3.82436e-09
-2.64989e-09
-7.20679e-09
-2.13232e-08
-2.04407e-08
-1.215e-08
2.78635e-10
-6.11614e-09
-7.69729e-09
-4.38408e-09
-3.40464e-09
-1.72637e-09
7.76333e-11
-1.02079e-08
-2.70544e-08
-1.95023e-08
3.10748e-09
-3.34722e-09
-7.16502e-09
2.28338e-09
8.44679e-09
7.58881e-09
4.01751e-11
-6.10356e-09
4.87076e-09
-1.50969e-08
-4.61637e-08
-1.93284e-08
1.64883e-09
5.13037e-10
-1.19702e-09
7.57872e-10
5.10716e-10
-9.27116e-10
-2.02481e-09
-3.49703e-09
-6.14443e-09
-4.97009e-09
3.13367e-09
1.26458e-08
6.80115e-09
-9.806e-10
3.83998e-09
-2.93054e-09
-1.6301e-08
-1.37613e-08
-8.20765e-09
-2.11832e-10
-3.10653e-09
-6.03965e-09
-6.85206e-09
-8.10779e-09
-4.35442e-09
-1.2648e-10
-1.29666e-08
-2.89775e-08
-1.11892e-08
3.08492e-09
1.16198e-09
7.5183e-09
1.40891e-08
5.7823e-09
5.79658e-10
-8.25697e-09
-9.02745e-09
4.00947e-09
-3.97568e-08
-3.57571e-08
-3.51207e-09
-4.18508e-09
-6.80695e-10
5.8169e-10
-3.51709e-10
-3.93598e-10
-1.03586e-09
-3.56175e-09
-9.47837e-09
-1.31845e-08
-9.9209e-09
-8.93415e-10
7.83852e-09
2.50177e-09
-2.08243e-09
2.55641e-10
-4.41587e-09
-4.95624e-09
-1.1047e-08
-5.7367e-09
2.69474e-10
-8.24999e-10
-3.86983e-09
-7.57036e-09
-1.04716e-08
-2.67779e-09
9.59615e-10
-1.42874e-08
-2.25853e-08
-6.18682e-09
8.17559e-09
1.43504e-08
6.59136e-09
-3.55433e-10
2.79016e-09
-1.75913e-09
-1.73469e-08
-3.58024e-09
-1.56933e-08
-4.53164e-08
-2.33697e-08
-7.09912e-09
1.32284e-09
-7.90072e-10
-9.7688e-10
-2.71075e-10
-4.8125e-10
-1.56383e-09
-5.74027e-09
-1.27039e-08
-1.53254e-08
-1.096e-08
-2.96e-09
2.41053e-09
-1.06502e-09
-3.74111e-09
-1.65936e-09
-1.29559e-09
-4.7757e-09
-5.33937e-09
-3.90946e-10
7.9206e-10
-2.02307e-10
-4.7863e-10
-3.74084e-09
-5.24037e-09
3.12933e-09
5.38043e-10
-1.0663e-08
-1.00266e-08
8.07453e-09
1.09506e-08
-1.43301e-09
3.02841e-09
6.31126e-09
1.90881e-09
-6.57182e-09
-1.43824e-08
-1.30071e-09
-3.60823e-08
-3.58382e-08
-6.51297e-09
5.53898e-10
-1.7066e-09
-6.81148e-10
-9.7251e-11
-3.44429e-10
-1.03992e-09
-2.64934e-09
-6.2323e-09
-1.05428e-08
-1.08074e-08
-6.63832e-09
-2.2488e-09
-5.80038e-10
-2.36391e-09
-3.29288e-09
-1.25472e-09
2.84823e-10
-8.22074e-10
-5.40144e-11
3.95445e-10
5.12744e-10
-3.42998e-10
1.10504e-10
6.03263e-10
3.36633e-09
5.41704e-09
-2.63545e-10
1.60709e-09
5.81487e-09
3.04864e-09
9.20845e-10
5.9737e-09
4.93766e-09
1.47938e-09
8.38938e-10
-4.18623e-09
1.9715e-09
-1.26511e-08
-2.82455e-08
-6.20381e-09
-1.8179e-09
-1.21777e-09
9.22471e-12
3.42142e-11
-1.80695e-10
-7.07396e-10
-1.80009e-09
-3.10129e-09
-4.74632e-09
-5.60998e-09
-4.03318e-09
-1.83534e-09
-1.08224e-09
-9.94768e-10
-1.85046e-09
-1.31228e-09
1.49457e-09
1.14214e-09
-6.53278e-10
-3.28825e-10
6.8505e-10
2.53122e-10
-1.61497e-09
-7.19732e-10
3.16394e-09
6.87726e-09
1.26619e-09
4.60368e-09
1.27804e-08
4.73025e-09
1.21106e-09
2.85533e-09
2.3789e-09
1.14435e-09
8.77883e-10
5.58446e-09
7.96747e-09
4.89988e-09
-7.95039e-09
-6.16288e-09
-2.898e-09
1.65268e-10
2.99784e-10
-8.92902e-11
-2.14642e-10
-3.82304e-10
-9.68641e-10
-2.52902e-09
-3.66698e-09
-3.34894e-09
-2.00474e-09
-7.24921e-10
-4.13296e-10
-5.3261e-10
-6.76821e-10
-1.41382e-09
-1.89299e-10
1.02315e-09
1.01618e-10
-9.05248e-10
-1.20019e-09
1.45032e-09
1.73478e-09
-3.80979e-10
4.05393e-10
4.83035e-09
2.78864e-09
-1.45553e-09
1.22827e-08
1.00371e-08
1.26082e-09
1.69562e-09
1.63142e-09
2.861e-10
1.61582e-09
4.62645e-09
1.03741e-08
8.47528e-09
1.31314e-10
-4.63891e-09
-1.02877e-09
1.96804e-10
-2.74455e-10
-3.13354e-10
-4.84314e-10
-8.25927e-10
-4.38004e-10
-1.02615e-09
-4.16811e-09
-5.23851e-09
-2.88943e-09
-6.47541e-10
-6.03539e-12
-1.61874e-10
-3.5633e-10
-7.49543e-10
-1.2186e-09
1.29044e-09
1.00431e-09
-1.8668e-09
-2.28429e-09
1.0664e-09
3.06088e-09
1.13856e-09
-1.65397e-10
3.47449e-09
5.39632e-09
-1.95387e-09
5.58723e-09
1.126e-08
4.6651e-09
2.99272e-09
7.07416e-10
-1.21079e-09
1.76285e-09
2.8389e-09
6.21525e-09
6.26577e-09
-1.24032e-09
-8.51862e-10
2.64169e-10
-5.44222e-10
-1.28153e-10
-3.99119e-11
-4.7833e-10
-1.84797e-09
-2.59015e-09
-2.86005e-10
-1.80903e-09
-7.35258e-09
-6.69801e-09
-2.28516e-09
-9.74893e-11
1.35373e-10
5.98435e-12
-1.91082e-11
-5.84729e-10
3.43271e-10
1.63011e-10
-9.20747e-10
-7.19764e-10
6.91232e-12
9.96283e-10
1.17403e-09
3.39996e-10
2.53995e-09
6.78527e-09
1.50348e-09
1.54139e-09
1.03128e-08
7.35592e-09
1.55295e-09
-5.41124e-10
-9.58273e-10
-1.03677e-09
1.48264e-09
2.3324e-09
1.71184e-09
-3.24755e-10
5.77993e-10
7.48211e-10
9.72512e-10
6.96382e-10
3.31149e-11
-4.24329e-10
-2.36585e-09
-6.08715e-09
-4.96056e-09
2.81077e-10
-4.38489e-09
-9.54622e-09
-5.20927e-09
-9.69001e-10
1.48116e-10
1.13992e-10
1.3581e-10
4.21292e-10
1.92777e-10
-3.70519e-10
-3.7026e-10
2.54085e-10
3.85326e-10
-1.45292e-10
4.36334e-10
1.02444e-09
1.66016e-09
4.55531e-09
3.24617e-09
9.23343e-11
5.48806e-09
3.20685e-09
-9.49448e-10
5.6426e-10
-3.12715e-10
-1.58148e-09
-1.57376e-09
2.28111e-09
1.40899e-09
-6.63255e-10
4.28293e-10
1.14609e-09
8.56795e-10
1.73364e-10
-2.22685e-10
-6.62466e-10
-2.11668e-09
-5.87489e-09
-9.0227e-09
-3.75366e-09
2.50341e-10
-7.14044e-09
-8.30654e-09
-2.71077e-09
-2.46364e-10
1.96585e-10
2.9511e-10
5.88849e-10
1.10064e-09
8.19958e-10
-4.04685e-11
-2.04724e-10
7.73211e-10
1.14554e-09
3.89582e-10
3.71546e-10
1.26839e-09
3.09521e-09
2.7471e-09
1.68613e-10
6.11902e-10
5.28028e-10
1.8624e-10
-2.52258e-10
-6.63073e-10
2.05621e-10
-7.2957e-10
-1.26127e-09
1.84323e-09
1.31589e-09
3.15262e-10
1.1332e-10
-4.69511e-10
-4.35659e-10
3.32162e-10
3.85817e-10
-6.34685e-10
-3.05011e-09
-7.55197e-09
-8.28103e-09
-9.846e-10
-1.11961e-09
-7.62955e-09
-5.78446e-09
-1.37892e-09
3.35147e-11
2.99119e-10
7.30159e-10
6.21891e-10
3.9595e-10
3.63151e-10
1.88389e-10
1.32722e-10
5.56352e-10
3.91531e-10
-2.63763e-10
4.13945e-10
2.56983e-09
2.68831e-09
5.51903e-10
6.9005e-10
1.90043e-09
8.56877e-10
9.63424e-11
6.699e-11
1.25379e-10
5.61123e-10
-6.42649e-10
-1.32143e-09
-3.1909e-10
3.52178e-10
-1.11461e-09
-3.21531e-09
-1.98899e-09
5.84209e-10
1.22687e-09
5.98676e-10
-5.13691e-10
-4.68088e-09
-1.02433e-08
-7.06942e-09
1.02313e-10
-2.16603e-09
-5.6162e-09
-3.47391e-09
-8.55296e-10
-9.03213e-10
8.19531e-11
2.39843e-10
-4.00084e-11
2.49166e-10
5.61374e-10
2.16141e-10
7.26489e-11
1.95822e-10
-1.04356e-10
-2.74781e-12
1.48415e-09
1.89579e-09
7.4675e-10
1.54932e-09
2.15334e-09
9.19394e-10
1.29983e-10
5.49362e-11
-7.55434e-11
4.38355e-10
5.53298e-10
-6.35901e-10
-4.85729e-10
-1.28307e-09
-4.78221e-09
-4.38991e-09
-4.85446e-10
-1.24291e-09
-3.07135e-09
-1.08858e-09
2.51073e-10
-2.50391e-09
-9.11147e-09
-1.2236e-08
-5.51646e-09
-3.76598e-11
-1.63689e-09
-3.36566e-09
-2.4932e-09
-2.50109e-09
-2.16191e-09
-1.38617e-09
-3.96015e-10
3.85171e-10
6.52562e-10
4.78176e-10
-1.70188e-10
-3.92688e-10
1.229e-10
1.72924e-10
-1.21706e-10
4.46988e-11
4.0655e-10
7.13241e-10
2.00413e-11
-6.07191e-10
-6.40676e-11
7.43789e-10
2.97285e-10
-2.4658e-10
9.77847e-10
1.58762e-09
-1.77919e-10
-2.87033e-09
-1.89307e-09
4.083e-11
-3.60391e-09
-5.23481e-09
-1.71041e-09
5.35481e-11
7.6425e-10
7.46153e-10
-3.26729e-09
-8.98326e-09
-8.94027e-09
-3.2195e-09
-7.3737e-11
-7.37686e-10
-2.00825e-09
-6.82665e-10
-1.53684e-09
-1.8357e-09
-4.97338e-10
7.22347e-10
4.92813e-10
3.93495e-10
2.09583e-10
-5.40766e-10
-3.41061e-10
2.91161e-10
-6.49257e-10
-1.37684e-09
-6.90834e-10
-4.33012e-10
-6.43845e-10
-5.94369e-10
-2.3579e-10
4.89286e-10
7.33638e-10
-1.39928e-10
-2.89654e-10
9.67089e-10
1.09898e-09
4.16569e-10
-4.1226e-10
-1.71472e-09
-1.2996e-09
2.41681e-10
2.00695e-10
-6.48246e-10
-6.38053e-10
1.85353e-09
2.34469e-09
-1.70416e-09
-4.57903e-09
-3.11184e-09
-5.26772e-10
4.69012e-10
1.15851e-10
-4.45756e-10
-4.12297e-10
2.90364e-10
7.81529e-10
2.85444e-10
-1.79576e-10
1.06513e-10
5.7004e-10
4.6872e-10
-1.76879e-10
-1.94325e-10
-2.1651e-10
-1.34905e-09
-1.46625e-09
6.48857e-11
7.73675e-10
-3.85486e-11
-7.80127e-10
-6.00954e-10
7.61037e-11
6.09914e-10
4.84987e-10
6.02381e-11
-4.95882e-11
7.27386e-12
4.54521e-11
2.94192e-11
1.76575e-11
3.02169e-10
8.29733e-10
7.16013e-10
-4.81286e-10
-1.15884e-09
-3.83973e-10
-3.83919e-10
-1.30476e-09
-1.37085e-09
-8.98927e-10
-7.64035e-10
-5.3742e-10
-6.69903e-10
-4.86624e-10
-2.3043e-10
2.37599e-10
4.2336e-10
2.2232e-10
-2.63054e-11
5.06898e-11
3.29071e-10
7.90882e-11
-4.57992e-10
-3.23356e-10
1.54716e-11
-5.72473e-11
-1.8176e-10
-3.74735e-11
9.86016e-11
-2.70117e-10
-7.50021e-10
-4.10802e-10
4.29228e-10
6.6798e-10
3.56217e-10
3.23929e-10
5.66002e-10
5.64074e-10
2.57453e-10
1.97965e-11
8.81462e-11
3.4237e-10
4.10843e-10
3.26802e-10
4.54455e-10
2.45787e-10
-5.56253e-10
-5.95216e-10
-1.7762e-10
-1.19779e-10
-3.45458e-10
-6.87785e-10
1.39537e-10
1.96726e-10
1.73973e-10
-3.73912e-11
-1.40939e-11
2.2301e-10
2.34452e-10
2.33738e-10
3.39327e-10
-1.18208e-10
-7.70941e-10
-5.55078e-10
-2.55429e-12
-1.8036e-10
-5.01486e-10
-2.5985e-10
1.87479e-10
1.62271e-10
-1.8664e-10
-1.44389e-10
1.89574e-10
2.29442e-10
1.22589e-10
1.99193e-10
2.10716e-10
6.06067e-12
-9.15672e-11
5.62872e-11
1.82382e-10
3.14808e-10
3.73486e-10
4.48751e-11
-1.56453e-11
4.43715e-10
3.3822e-10
-1.28013e-10
-3.7183e-11
2.99288e-10
3.87524e-10
2.52004e-10
1.1916e-10
2.20698e-10
2.83366e-10
2.32831e-10
1.04838e-10
1.52407e-11
-8.79265e-11
-1.05962e-10
7.41416e-11
-4.41234e-11
-1.0024e-09
-1.64986e-09
-9.74503e-10
-1.9883e-10
-2.61056e-10
-5.51844e-10
-4.35344e-10
-9.87832e-11
3.82195e-11
-1.39303e-11
-6.86984e-11
-5.52834e-11
8.42984e-11
2.02978e-10
8.73711e-11
-8.97841e-11
-9.37744e-11
-1.1497e-11
-8.75484e-12
-5.25362e-12
5.19877e-11
-8.94399e-11
-2.89871e-10
-1.66308e-10
-9.869e-11
-1.25249e-10
-8.18738e-11
-5.61652e-11
-4.21068e-11
2.0639e-11
-2.06438e-10
-7.72565e-11
2.45704e-11
2.4076e-10
6.43863e-10
6.02148e-10
4.6189e-11
-1.03749e-10
1.83503e-10
2.51082e-10
3.99788e-10
4.87163e-10
1.13551e-10
-2.42403e-10
-6.79645e-11
4.26056e-10
6.5293e-10
4.84988e-10
2.65781e-10
1.51137e-10
8.57336e-11
5.67522e-11
6.89234e-11
2.6961e-11
-5.28063e-11
-4.5805e-11
2.97864e-11
9.41336e-11
1.70436e-10
2.22885e-10
1.90826e-10
1.87484e-10
2.78784e-10
2.15619e-10
-2.36836e-11
-2.01513e-10
-1.56401e-10
-2.19124e-11
-5.03283e-11
-1.95605e-10
-9.08704e-09
-5.16984e-09
-1.31893e-09
3.23332e-09
8.5248e-09
1.69201e-08
2.54994e-08
1.0566e-08
-1.38102e-08
-4.11325e-08
-6.68071e-08
-8.26705e-08
-9.07188e-08
-9.21903e-08
-9.10755e-08
-1.08389e-07
-1.40301e-07
-9.72208e-08
1.04686e-07
3.15372e-07
2.84692e-07
1.52566e-07
-6.18433e-08
-3.37971e-07
-4.83146e-07
-5.0778e-07
-4.34459e-07
-3.14078e-07
-1.94265e-07
-7.89524e-08
6.55368e-08
2.17297e-07
2.91911e-07
2.35753e-07
9.47418e-08
-2.48534e-08
-7.2507e-08
-2.56874e-08
-3.54103e-10
-4.05631e-09
-3.78279e-09
-1.17757e-09
-4.4066e-10
-2.34731e-09
-6.12788e-09
-7.64468e-09
-1.11854e-09
7.25809e-09
3.7806e-09
-1.01357e-09
-5.76711e-09
-9.07082e-09
-6.51613e-09
-1.27488e-09
5.67985e-09
8.55431e-09
-2.49359e-09
-2.25092e-08
-2.78137e-08
4.73927e-09
1.5789e-08
-1.98368e-08
-1.26454e-09
-3.54092e-08
-6.92214e-08
-3.98138e-08
5.49684e-09
2.45344e-08
1.91363e-08
1.01982e-08
5.39065e-09
4.05516e-09
7.76042e-09
1.59145e-08
1.75776e-08
5.67741e-09
-8.95024e-10
-1.76459e-09
9.23143e-09
-2.87903e-10
-1.63068e-09
-7.4286e-10
1.902e-10
8.89351e-11
1.0813e-09
2.3991e-09
9.86134e-10
-3.90555e-09
-9.19055e-09
-9.66462e-09
-6.97122e-10
2.47421e-09
-1.98809e-09
-1.12928e-08
-2.00681e-08
-2.67381e-08
-2.83515e-08
-6.5457e-09
3.75372e-08
5.10073e-08
3.21291e-09
-6.45281e-08
-2.96331e-08
4.35655e-08
3.66515e-08
5.98706e-09
-3.25566e-08
-5.88988e-08
-6.37892e-08
-5.24005e-08
-3.27612e-08
-1.36566e-08
-2.16142e-09
-3.96701e-09
-7.99897e-09
-3.8906e-11
7.04768e-10
-6.07665e-09
-7.7727e-09
9.22477e-10
1.01028e-09
-1.33305e-10
2.21096e-10
-1.12033e-09
-1.45114e-09
-1.40539e-10
1.79842e-09
-2.73125e-09
-1.15407e-08
-1.50352e-08
-7.28966e-09
1.66179e-09
6.19175e-10
-6.32098e-09
-1.32607e-08
-1.83749e-08
-2.19012e-08
-9.32974e-09
2.64433e-08
5.51768e-08
2.6591e-08
-5.40166e-08
-6.3522e-08
2.09487e-08
3.69447e-08
2.10082e-08
-6.6931e-09
-2.87437e-08
-3.64611e-08
-3.37559e-08
-2.51293e-08
-1.56392e-08
-8.80382e-09
-9.20267e-09
-1.79668e-08
-1.73767e-08
-7.02704e-09
-9.7706e-09
-2.41537e-08
-8.12579e-09
3.9163e-10
-1.69549e-10
-2.0215e-10
3.05431e-11
-9.67694e-10
-1.8212e-09
-1.73317e-10
2.50549e-09
-3.1721e-09
-7.15053e-09
-8.39373e-09
-1.87155e-09
1.11109e-09
4.91647e-10
6.30267e-10
5.07653e-11
-2.53882e-09
-1.3593e-09
3.26848e-09
6.0972e-09
1.25317e-08
-9.50185e-09
-5.80214e-08
-1.32871e-08
9.90127e-09
6.75862e-09
2.53619e-09
-2.47704e-10
-3.51898e-10
-5.69638e-11
6.74633e-10
1.85943e-09
3.21569e-09
3.70557e-09
-7.92483e-10
-2.64289e-09
-8.54992e-10
-6.60141e-09
-2.35435e-08
-2.46981e-08
-1.23557e-08
2.1668e-09
-1.66403e-09
1.3677e-10
3.8097e-10
-1.78182e-09
-3.73621e-09
6.64314e-10
4.5256e-09
-2.61736e-09
-2.26846e-09
-2.55144e-09
1.20671e-09
2.78845e-09
2.78569e-09
1.13365e-09
2.33675e-09
2.68607e-09
-5.20459e-10
-9.40261e-09
-1.37335e-08
4.97103e-09
-3.18796e-08
-3.07416e-08
2.64329e-09
3.01776e-09
-5.96137e-10
5.37348e-12
-2.29131e-09
-6.17534e-09
-8.39789e-09
-9.44662e-09
-8.65649e-09
-4.15771e-09
5.82658e-10
-1.6258e-11
8.0167e-09
6.44659e-09
-8.56131e-09
-3.18083e-08
-3.01869e-08
-6.05393e-10
1.06942e-09
-1.21513e-10
1.53757e-09
8.60629e-10
-3.55978e-09
-6.55718e-09
6.89891e-09
7.69425e-09
-2.06756e-09
2.49421e-09
4.4641e-09
4.94346e-09
8.18274e-10
1.25022e-09
7.99643e-09
5.83518e-09
-3.30828e-10
-4.52536e-09
-1.45448e-08
1.05497e-10
-1.33352e-08
-3.39815e-08
-7.79923e-09
-6.67569e-09
-5.04273e-09
-2.75453e-10
-4.22695e-10
-3.71872e-09
-8.98251e-09
-1.61335e-08
-2.31126e-08
-2.29191e-08
-1.11905e-08
-1.88061e-09
8.70391e-10
9.88519e-09
6.7233e-09
-1.56435e-08
-2.4453e-08
-1.8373e-08
2.58245e-09
9.31165e-10
1.47077e-09
2.74449e-09
3.79133e-10
-7.44835e-09
-8.04284e-09
1.93435e-08
8.8175e-09
1.85033e-09
1.06726e-08
6.97778e-09
-4.75918e-11
6.42695e-09
1.15679e-08
5.52998e-09
-2.87736e-10
-2.66868e-09
-8.00559e-09
-6.59405e-09
-6.56496e-09
-2.65059e-08
-1.99803e-08
-1.44291e-08
-4.69435e-09
-1.47745e-10
5.92376e-11
-4.01512e-10
-1.77297e-09
-5.69351e-09
-1.3771e-08
-2.39177e-08
-2.46419e-08
-1.10049e-08
-3.0645e-09
2.38342e-09
9.75291e-09
5.73213e-09
-1.2447e-09
-2.73215e-08
-6.26901e-09
2.09848e-09
4.86398e-10
9.6677e-10
3.21128e-09
3.40372e-09
-6.49636e-09
-2.35793e-09
3.02604e-08
1.04856e-08
5.50878e-09
5.11145e-09
4.55106e-10
7.82753e-09
8.54556e-09
3.58963e-09
3.63343e-10
-1.84076e-09
-2.42729e-09
-8.49823e-09
-5.13175e-09
-1.63819e-08
-2.46385e-08
-1.362e-08
-1.44733e-09
3.01146e-10
-6.1705e-11
-1.57439e-10
-2.48253e-10
-7.65265e-10
-2.74034e-09
-8.02831e-09
-1.57982e-08
-1.60074e-08
-7.13438e-09
-2.50344e-09
2.92869e-09
1.21353e-08
1.22911e-08
-1.39563e-08
-1.08119e-08
3.11214e-09
-8.17925e-10
-1.3498e-09
1.51352e-11
1.539e-09
6.01158e-09
-5.75478e-09
6.55476e-09
3.73728e-08
1.25481e-08
-1.41932e-09
-1.7863e-09
3.3002e-09
4.86559e-09
3.35683e-09
6.17682e-10
-6.26337e-10
-2.66813e-10
-5.0375e-09
-3.97158e-09
-8.09677e-09
-2.14087e-08
-6.73108e-09
3.5323e-10
-3.9736e-10
-1.28271e-10
-1.40202e-10
-1.51115e-10
9.8911e-11
3.50438e-11
-1.49851e-09
-4.91452e-09
-7.9583e-09
-6.54337e-09
-3.40487e-09
-2.40858e-09
5.127e-09
1.05908e-08
2.87322e-09
-7.64452e-09
1.64017e-09
7.95015e-10
-5.71514e-10
-1.66584e-09
-3.2236e-09
-2.11511e-10
5.23955e-09
-6.86089e-09
1.93176e-08
3.71744e-08
3.57289e-09
-5.5527e-09
3.08735e-09
5.81873e-09
1.78415e-09
-5.25842e-12
1.41194e-10
-2.52913e-10
-4.05904e-10
-1.31576e-09
-2.10966e-09
-6.65154e-09
-4.36762e-10
-1.57927e-09
-6.15131e-10
4.5302e-11
-1.4407e-10
-2.19598e-10
3.07519e-10
1.04227e-09
6.81164e-11
-2.55757e-09
-4.02508e-09
-2.93278e-09
-1.43169e-09
-1.93278e-09
-1.67681e-09
3.19878e-09
9.11508e-09
-3.75764e-09
-1.41111e-09
2.48124e-09
9.5711e-10
-1.45091e-09
-2.23075e-09
-1.74464e-09
1.23187e-09
4.26636e-10
6.89901e-10
2.77317e-08
1.43056e-08
-3.55341e-09
2.51391e-09
2.95054e-09
4.71807e-10
-1.72061e-10
3.58888e-10
1.40748e-09
2.13148e-09
1.11998e-09
2.76845e-09
1.32226e-09
-2.43952e-09
-7.68964e-10
1.68953e-13
-1.46091e-11
-1.86579e-10
-6.25558e-10
-9.52626e-10
3.3049e-10
1.4136e-09
-2.05125e-09
-4.50708e-09
-2.77635e-09
-5.49164e-10
4.39815e-10
-1.20197e-09
-7.23557e-11
4.63994e-09
-7.08211e-11
-1.84845e-09
8.90284e-10
-6.14586e-11
-8.5855e-10
-7.42437e-10
6.93852e-10
1.3259e-09
6.87361e-10
7.00069e-10
1.36929e-08
1.7167e-08
1.25265e-09
-1.55114e-10
9.35332e-10
2.8041e-10
-4.85733e-10
6.69027e-10
4.09698e-09
4.39801e-09
3.25182e-09
3.65626e-10
-2.03928e-09
-3.36832e-10
-5.3772e-10
2.18727e-10
2.62691e-10
-2.5155e-12
-7.66108e-10
-4.61175e-09
-6.26222e-09
-2.68152e-10
2.54953e-10
-5.54988e-09
-5.11133e-09
-1.39984e-09
2.73376e-10
9.50596e-10
2.14528e-10
4.89151e-10
2.38799e-09
1.00001e-10
-1.15273e-09
5.39382e-11
1.07595e-09
1.43912e-10
9.77753e-10
4.11608e-09
2.1826e-09
-4.96906e-10
7.21855e-09
1.58895e-08
6.82646e-09
1.1168e-09
4.34721e-10
-6.40655e-10
-3.205e-10
8.75461e-10
4.4628e-09
5.01774e-09
2.57567e-09
-2.62043e-10
-5.83933e-10
-3.86112e-10
1.01116e-10
-1.08229e-09
-1.70711e-09
-7.74395e-10
-9.7607e-10
-5.27891e-09
-1.21458e-08
-8.37582e-09
1.16497e-09
-2.5326e-09
-6.80224e-09
-3.45114e-09
-5.16363e-10
4.61156e-10
1.96167e-10
-3.76062e-10
4.22399e-10
-1.69651e-10
-7.61741e-10
-2.63747e-10
7.20255e-10
5.49689e-10
-2.31232e-10
3.04952e-09
4.39944e-09
-6.36358e-10
2.4714e-09
1.20914e-08
9.60457e-09
2.4256e-09
-8.09509e-10
-4.34432e-10
4.91834e-10
1.84277e-10
2.37232e-09
4.83383e-09
1.48197e-09
-7.41644e-10
-1.01701e-09
-3.03379e-09
-4.76771e-09
-2.89432e-09
-1.47758e-09
-2.2005e-09
-2.34051e-09
-1.41736e-09
-5.6824e-09
-1.14809e-08
-3.78353e-09
7.15412e-10
-4.63593e-09
-4.91665e-09
-1.47841e-09
-2.34496e-10
-1.63661e-10
2.35694e-10
3.6101e-10
2.80876e-10
-2.22263e-11
-1.59147e-10
-1.03392e-10
2.02795e-10
8.94718e-11
9.07915e-10
3.27774e-09
6.36217e-10
4.13133e-10
7.18559e-09
6.73179e-09
7.55168e-10
-1.52862e-10
9.84155e-10
1.03538e-11
-4.66894e-10
7.36074e-10
3.54124e-09
2.85843e-09
-1.10007e-09
-4.9863e-09
-5.71324e-09
-2.32402e-09
-1.90783e-09
-3.00501e-09
-1.88093e-09
-3.98193e-10
-3.47177e-12
-1.50663e-10
-6.03402e-09
-8.07644e-09
-4.87332e-10
-1.45659e-09
-4.6842e-09
-2.80566e-09
-6.83127e-10
-8.35398e-10
-3.48796e-10
2.13665e-10
3.38148e-10
1.28802e-10
8.10028e-12
-2.94872e-11
-2.38515e-10
4.96107e-12
5.80933e-10
1.50463e-09
1.10707e-09
9.65999e-11
3.84997e-09
4.47456e-09
1.16108e-09
3.97162e-10
3.60377e-10
7.16157e-11
2.29779e-10
4.70617e-10
1.37882e-09
1.56111e-09
-1.39184e-09
-2.55613e-09
-2.21185e-10
-7.12917e-10
-3.20465e-09
-2.46686e-09
4.23092e-10
1.83054e-09
1.4728e-09
-1.7181e-10
-2.92001e-09
-8.20114e-09
-4.81626e-09
2.58942e-10
-2.31433e-09
-3.67809e-09
-1.98055e-09
-2.58522e-09
-1.59995e-09
-3.68008e-10
3.0199e-10
2.06067e-10
7.49956e-11
1.8006e-10
3.70782e-11
-1.45275e-10
5.69508e-10
9.01664e-10
3.73277e-10
4.71417e-10
2.92847e-09
3.34676e-09
2.011e-10
-2.39914e-10
1.08146e-09
1.03784e-09
7.8696e-11
-2.4415e-10
-1.62449e-10
-4.65309e-10
-9.75738e-10
-4.48332e-10
-8.55701e-10
-3.88294e-09
-4.2413e-09
-1.13521e-09
-5.86368e-10
-9.10784e-10
6.92654e-10
1.34423e-09
-2.48732e-09
-7.11124e-09
-8.19418e-09
-2.25522e-09
3.28398e-10
-1.8419e-09
-3.0423e-09
-2.3561e-09
-1.79164e-09
-7.24897e-10
-2.63786e-10
-8.45861e-11
1.57779e-10
2.9731e-10
1.13313e-10
-1.56349e-10
3.03529e-10
7.83751e-10
-3.66939e-11
2.28284e-10
1.39952e-09
8.05567e-10
3.7634e-10
6.31196e-10
2.63734e-10
-7.51852e-11
-2.60738e-10
-6.0247e-10
-6.5147e-10
-4.17346e-10
8.04405e-11
-6.98321e-10
-3.54632e-09
-3.22345e-09
-5.21027e-11
-2.1406e-10
-5.64324e-10
9.2054e-10
2.46858e-10
-5.37492e-10
-5.63917e-10
-4.44217e-09
-6.32337e-09
-3.55822e-09
1.46819e-10
2.34993e-10
-1.49487e-09
-7.56186e-11
-9.68358e-11
3.55011e-12
2.09568e-10
3.09162e-10
1.09725e-10
4.6082e-11
1.29162e-10
7.97641e-11
2.74661e-10
7.01602e-10
2.38327e-10
-6.09261e-10
-1.70684e-10
9.57558e-10
7.03437e-10
-4.8962e-10
-4.00559e-10
2.9617e-10
2.0971e-10
5.24909e-11
6.96213e-10
1.13594e-09
3.03467e-10
-8.84978e-10
-5.1413e-10
-1.94666e-10
-1.05481e-09
-6.31752e-10
1.97994e-10
4.56004e-10
1.84942e-09
1.49886e-09
1.15546e-10
-1.5956e-09
-3.51267e-09
-2.17028e-09
-2.06384e-10
2.18404e-10
4.90142e-11
-3.08787e-10
-3.30989e-10
-2.24926e-12
5.90405e-10
4.79782e-10
-7.45842e-11
-4.18647e-10
-4.24502e-10
-1.92873e-10
3.70317e-11
2.61475e-10
2.71847e-12
-8.24464e-10
-5.40389e-10
4.87602e-10
3.24393e-10
-6.28565e-10
-1.03905e-09
-6.83942e-10
-2.06027e-10
-1.24727e-10
-1.6965e-11
2.52697e-10
5.45605e-11
-2.05077e-10
-8.44559e-11
2.11106e-10
6.01208e-10
7.38032e-10
3.76788e-10
-5.85206e-11
3.54625e-10
7.44334e-10
-2.32375e-11
-7.54718e-10
-2.03866e-09
-2.04386e-09
-7.71011e-10
-2.94693e-10
-3.85945e-10
-1.03269e-09
-8.21782e-10
-2.7065e-10
2.57672e-10
4.7882e-10
2.7096e-10
-2.18369e-10
-6.3669e-10
-3.63663e-10
2.20942e-10
-8.74724e-12
-4.64145e-10
-4.49679e-10
-3.08413e-10
-3.20694e-10
5.92527e-11
3.36427e-10
-3.12499e-10
-7.3292e-10
-1.55088e-10
3.41966e-10
1.34694e-10
-9.7819e-11
1.46816e-10
7.88516e-10
1.2146e-09
7.97834e-10
1.4663e-10
1.35833e-10
5.11406e-10
7.84405e-10
9.92743e-10
7.5689e-10
-8.91211e-10
-1.99654e-09
-1.301e-09
-6.49049e-10
-4.60325e-10
-5.09832e-10
-7.8787e-10
1.68539e-10
-2.71044e-11
-1.83923e-10
-2.72244e-11
4.52135e-10
9.72368e-10
7.95174e-10
-1.82457e-10
-4.0472e-10
3.08052e-10
1.61183e-10
-5.7979e-10
-4.347e-10
-1.21325e-10
-1.90219e-10
3.21804e-10
9.98304e-10
6.11925e-10
-4.94192e-11
-6.20128e-13
3.21778e-10
3.95127e-10
3.31522e-10
2.80513e-10
4.28597e-11
-2.28327e-10
-5.39887e-11
3.37383e-10
5.16505e-10
4.12355e-10
1.2143e-10
-2.13262e-11
1.81354e-10
2.37553e-10
-4.62883e-10
-9.14191e-10
-4.26511e-10
1.34795e-10
3.02539e-10
2.55716e-10
-1.10735e-10
2.01841e-10
3.35698e-10
1.68193e-10
3.8917e-11
1.61714e-10
3.36939e-10
2.42946e-11
-6.27092e-10
-3.19098e-10
1.51323e-10
-5.4108e-10
-8.39426e-10
-1.72999e-10
1.31385e-10
-1.31447e-10
-1.25044e-10
1.65488e-10
1.2072e-10
-9.68858e-11
2.94655e-11
3.51818e-10
3.92714e-10
6.22183e-11
-2.95098e-10
-4.47049e-10
-4.7549e-10
-2.92125e-10
1.1247e-11
3.99906e-11
-1.87526e-10
-2.03703e-10
1.55893e-11
-6.93773e-11
-2.23308e-10
-1.70167e-10
-6.11243e-11
-1.43555e-11
-1.09831e-10
-2.2578e-10
-1.56921e-10
-8.87142e-11
9.7456e-11
4.72239e-10
6.57611e-10
3.01491e-10
6.4376e-11
3.74687e-10
4.79579e-10
2.39919e-10
3.23103e-10
4.02555e-10
1.10257e-10
-9.86698e-11
3.52411e-11
4.6404e-10
1.06143e-09
1.40507e-09
1.13009e-09
4.83366e-10
6.19131e-11
6.07693e-11
1.10278e-10
2.70782e-11
1.1238e-11
1.62372e-11
-1.26298e-11
5.26364e-11
2.10213e-10
2.38401e-10
4.22383e-11
-7.10857e-11
1.08928e-10
2.34961e-10
-6.69723e-11
-3.83992e-10
-3.22503e-10
-8.73029e-11
3.88079e-12
-9.02141e-11
1.00981e-09
6.76017e-09
1.31265e-08
1.54615e-08
-8.88957e-09
-3.69643e-08
-4.42463e-08
-3.34003e-08
-2.10816e-08
-1.87308e-08
-4.19994e-08
-9.19932e-08
-1.53927e-07
-2.15975e-07
-2.82818e-07
-3.60938e-07
-4.36159e-07
-4.50642e-07
-3.15647e-07
-6.12546e-09
2.09844e-07
1.0862e-07
1.91443e-08
-7.55533e-08
-1.76659e-07
-1.92782e-07
-1.584e-07
-1.19561e-07
-8.87061e-08
-6.28361e-08
-4.77306e-08
-4.78363e-08
-6.48191e-08
-8.8039e-08
-5.62659e-08
3.40108e-08
1.85065e-08
-2.10428e-08
2.52356e-10
2.18258e-09
3.23935e-09
4.30337e-09
3.30674e-09
-3.88849e-09
-1.24266e-08
-1.35922e-08
-5.68046e-09
5.40397e-09
1.38278e-08
1.41799e-08
7.41767e-09
-2.87814e-11
-5.78137e-09
-8.32348e-09
-7.56254e-09
-6.39461e-09
-7.22853e-09
-9.50668e-09
-8.77185e-09
1.44124e-09
2.23609e-08
1.5013e-08
-1.60454e-08
1.16483e-09
-4.32994e-08
-6.30947e-08
-3.61313e-08
-9.26829e-09
3.17197e-09
8.2819e-09
1.13449e-08
1.55721e-08
2.39437e-08
3.12623e-08
2.35767e-08
4.25341e-09
-5.20981e-09
-1.89888e-08
-1.72304e-08
-1.76518e-09
3.63789e-11
1.21518e-09
3.36415e-10
1.76261e-09
4.25346e-09
3.40243e-09
-1.43065e-10
-2.69993e-09
-3.42415e-09
-5.46428e-09
-1.0059e-08
-1.30232e-08
-1.44331e-08
-1.8501e-08
-2.66942e-08
-3.75921e-08
-4.50515e-08
-3.67745e-08
-1.26494e-08
5.03187e-09
4.5358e-09
-1.49231e-08
-6.41591e-08
-3.75716e-08
7.72467e-09
4.1463e-09
-8.92548e-10
-1.60742e-08
-3.64387e-08
-4.94299e-08
-5.04646e-08
-4.26487e-08
-3.40779e-08
-3.11617e-08
-2.70625e-08
-1.40409e-08
-4.37156e-09
-2.10775e-09
-1.78443e-08
-1.05147e-08
-1.55991e-09
6.07028e-10
-8.01666e-10
-2.32599e-10
2.71271e-09
3.29269e-09
5.6413e-10
-2.55464e-09
-3.87563e-09
-4.96975e-09
-7.39581e-09
-9.30045e-09
-9.68162e-09
-1.07362e-08
-1.29338e-08
-1.59597e-08
-1.72768e-08
-9.58738e-09
1.2167e-08
2.74209e-08
1.94626e-08
-8.24055e-10
-5.51153e-08
-6.93758e-08
1.27861e-09
1.29371e-08
5.3767e-09
-1.14674e-08
-3.0982e-08
-4.22237e-08
-4.28213e-08
-3.57293e-08
-2.63318e-08
-2.25824e-08
-2.61076e-08
-2.50024e-08
-9.9521e-09
1.40265e-09
-8.21975e-09
-1.42831e-08
-6.40226e-09
2.55301e-11
-1.16043e-10
-8.61438e-10
3.65773e-10
1.29447e-09
7.06414e-10
-2.04806e-10
7.58757e-11
5.21566e-10
-5.07082e-10
-2.60394e-09
-3.03781e-09
-2.14018e-09
-1.44219e-09
-9.74124e-10
1.5765e-10
3.25587e-09
8.19573e-09
8.07387e-09
-4.48025e-09
-5.26167e-09
-7.70481e-09
-5.42354e-08
-1.55967e-08
3.54187e-09
-1.21569e-10
4.53819e-10
-1.55141e-09
-4.65742e-09
-5.67627e-09
-3.83731e-09
-1.24259e-09
-1.28915e-10
-1.65388e-10
-2.12542e-09
-4.21211e-09
-4.68589e-10
-1.29006e-09
-1.31e-08
-9.93301e-09
-2.51157e-09
7.40122e-10
3.75456e-10
-1.63338e-10
-5.86957e-11
-1.04437e-10
-3.90021e-10
9.18331e-13
2.75678e-09
4.52696e-09
3.05426e-09
7.33602e-10
-8.68387e-11
8.66803e-11
3.32933e-10
1.02169e-09
2.37699e-09
2.34036e-09
1.33641e-09
-7.21503e-09
-1.79751e-08
1.07985e-09
-2.15174e-08
-2.63869e-08
-7.14146e-10
-1.88132e-09
-3.08459e-09
-1.489e-09
-5.56876e-10
-5.31668e-10
-1.38705e-09
-3.91787e-09
-7.10357e-09
-5.70113e-09
1.50245e-09
3.89076e-09
-1.79e-10
-4.94119e-10
-5.31601e-09
-4.81281e-09
-6.00812e-09
-9.80449e-10
1.09428e-09
4.12587e-10
-2.04751e-10
-4.25636e-10
3.03058e-10
1.97769e-10
-1.02103e-09
2.51951e-09
5.57908e-09
3.89897e-09
1.29317e-09
4.71444e-10
-5.00425e-10
-2.9226e-10
7.79279e-10
3.04356e-10
9.46857e-10
1.19881e-09
-3.00019e-09
6.68267e-10
-5.30031e-09
-2.36117e-08
-6.17168e-09
-1.87655e-10
-7.06402e-10
-1.44104e-09
-3.25204e-09
-5.19005e-09
-8.20545e-09
-1.4354e-08
-2.21182e-08
-2.21182e-08
-1.15841e-08
-2.78665e-11
2.70912e-09
-2.89526e-10
-1.66939e-09
8.9593e-11
-3.01923e-09
-4.4024e-09
-2.47375e-10
7.39862e-10
8.51472e-11
-4.71418e-10
6.13737e-10
4.75361e-09
3.76399e-09
-1.063e-09
3.868e-09
8.28699e-09
5.33559e-09
1.47483e-09
-1.23043e-09
-1.35632e-09
-2.18528e-10
1.5815e-10
-2.74595e-10
1.53024e-09
3.75781e-09
4.25733e-09
-4.35895e-09
-1.4945e-08
-1.03809e-08
-5.53314e-09
-1.27579e-09
1.99422e-10
-6.05035e-10
-2.26643e-09
-5.13623e-09
-1.06701e-08
-2.07278e-08
-2.93178e-08
-2.37291e-08
-1.01364e-08
1.36342e-10
2.51524e-09
-1.92116e-10
-2.05636e-10
3.33085e-09
-3.68873e-09
-2.98599e-09
-4.87095e-10
1.53143e-11
-3.99062e-10
-6.2466e-10
1.81172e-09
9.28381e-09
5.14499e-09
-8.52393e-10
8.65614e-09
1.03272e-08
3.66762e-09
-6.13995e-11
-9.60009e-10
-2.33318e-10
7.39025e-10
-1.55214e-09
7.0353e-10
4.20629e-09
2.94249e-09