/*--------------------------------*- C++ -*----------------------------------*\
| =========                 |                                                 |
| \\      /  F ield         | OpenFOAM: The Open Source CFD Toolbox           |
|  \\    /   O peration     | Version:  5.0                                   |
|   \\  /    A nd           | Web:      www.OpenFOAM.org                      |
|    \\/     M anipulation  |                                                 |
\*---------------------------------------------------------------------------*/
FoamFile
{
    version     2.0;
    format      ascii;
    class       volSymmTensorField;
    location    "50.4676134421789371";
    object      DMean;
}
// * * * * * * * * * * * * * * * * * * * * * * * * * * * * * * * * * * * * * //

dimensions      [0 0 -1 0 0 0 0];

internalField   nonuniform List<symmTensor> 
60000
(
(-0.00119646 1.13158 -0.0251322 0.00146524 0.13426 0.00162063)
(-0.00629438 1.10767 -0.0236059 0.00706139 0.184696 0.00382171)
(-0.010521 1.02924 -0.0210422 0.0116765 0.203322 0.00505086)
(-0.010485 0.919703 -0.0174637 0.00970146 0.183113 0.00495947)
(-0.00619325 0.82415 -0.0119349 0.00267303 0.114346 0.00445761)
(-0.00137366 0.774796 -0.00594152 -0.0026466 0.00492396 0.00354791)
(0.00189587 0.767581 -0.00183091 -0.00290288 -0.098844 0.000590668)
(0.00507333 0.790091 -0.0003196 -0.000377815 -0.142544 -0.00384714)
(0.00829199 0.851792 -0.000881979 0.000115688 -0.102131 -0.00660078)
(0.00909176 0.948583 -0.00310126 -0.000716076 0.00972221 -0.00746659)
(0.00636519 1.04171 -0.00674803 0.00251327 0.136904 -0.00763392)
(0.00160273 1.09319 -0.00996428 0.00756411 0.230131 -0.00751008)
(-0.00234921 1.08822 -0.0100915 0.0105276 0.266016 -0.00626351)
(-0.00331908 1.04636 -0.00595329 0.00892479 0.245451 -0.00396667)
(-0.00170946 1.00837 0.000657799 0.00599268 0.182245 -0.00205757)
(0.000773898 1.00375 0.00698625 0.00380935 0.0858635 -0.000669963)
(0.00321243 1.03676 0.0121703 -0.00337165 -0.0328667 0.00301819)
(0.00520822 1.09323 0.0161006 -0.0146796 -0.148045 0.0103309)
(0.0064045 1.15435 0.0174746 -0.0243939 -0.241776 0.0156842)
(0.00718789 1.20697 0.0159294 -0.0218847 -0.309813 0.0106573)
(0.00855721 1.25588 0.0128346 -0.00710921 -0.32368 -0.00468399)
(0.0100567 1.32443 0.0102165 0.0095594 -0.243218 -0.0202972)
(0.0101472 1.42031 0.00920986 0.0189457 -0.0752927 -0.0265708)
(0.00963278 1.5257 0.00773038 0.0140179 0.111421 -0.0201456)
(0.0103148 1.63719 0.00356471 -0.0054285 0.251781 -0.00334914)
(0.0109394 1.75895 -0.00213922 -0.0310186 0.317439 0.0170967)
(0.00840937 1.87223 -0.00689547 -0.0490504 0.321602 0.0336574)
(0.00149091 1.93689 -0.00961959 -0.0522144 0.297877 0.0420764)
(-0.00743179 1.91572 -0.00986332 -0.0429964 0.269534 0.0421885)
(-0.0130119 1.80658 -0.00631526 -0.028809 0.233406 0.0356191)
(-0.0116305 1.66365 0.00151738 -0.0171514 0.17006 0.0254887)
(-0.00603022 1.56235 0.0105404 -0.0114009 0.0744144 0.0163451)
(-0.00199531 1.52615 0.0168346 -0.008274 -0.0328117 0.0114825)
(-0.00311613 1.52089 0.0188844 -0.00639498 -0.130728 0.0113544)
(-0.00933068 1.48474 0.0163873 -0.00388902 -0.216093 0.0144498)
(-0.014861 1.3679 0.00899689 -0.00162421 -0.281338 0.0167906)
(-0.0123896 1.19951 -0.00235121 -0.00169687 -0.288806 0.014397)
(-0.00434043 1.08787 -0.0124897 -0.00290755 -0.207433 0.00854283)
(0.00114865 1.07629 -0.0194275 -0.00246959 -0.073138 0.00315864)
(0.0017742 1.1098 -0.0239269 -0.00123856 0.049644 0.000705578)
(0.000876425 0.990595 -0.0777159 -0.0135483 0.0434361 0.016632)
(-0.0137312 1.00563 -0.0752074 0.00420083 0.0924517 0.0177708)
(-0.0263414 0.975209 -0.0673703 0.0172516 0.111458 0.0183794)
(-0.0298375 0.910234 -0.0545547 0.0164109 0.107449 0.0190679)
(-0.0224309 0.825573 -0.0362386 0.00419867 0.086843 0.0188705)
(-0.00991608 0.745227 -0.015583 -0.00855199 0.037922 0.0163356)
(0.000988486 0.698185 0.000317445 -0.0107228 -0.0351891 0.00841496)
(0.01141 0.689482 0.00616519 -0.00537505 -0.0867977 -0.00565328)
(0.0228649 0.713896 0.00199331 -0.00356401 -0.0796682 -0.0174793)
(0.028321 0.7811 -0.0091012 -0.00665839 -0.00871677 -0.0209562)
(0.0221764 0.873539 -0.0231667 -0.00154576 0.089313 -0.0184152)
(0.0076199 0.945686 -0.0343234 0.0107026 0.170194 -0.0148165)
(-0.00687453 0.964996 -0.036193 0.0220129 0.210966 -0.0110579)
(-0.0124793 0.931556 -0.0253429 0.0221957 0.207061 -0.00652506)
(-0.00672209 0.883023 -0.00505307 0.0113347 0.166319 -0.00199146)
(0.00490934 0.868267 0.0174533 -0.00459661 0.100974 0.00326051)
(0.0145708 0.904373 0.036975 -0.0267057 0.0229572 0.0141204)
(0.0180245 0.964456 0.0501799 -0.0504076 -0.0535132 0.0319593)
(0.015878 1.01396 0.0547483 -0.0630236 -0.119938 0.0434923)
(0.0125163 1.03599 0.05162 -0.0474026 -0.175389 0.0290842)
(0.0142326 1.03745 0.0430226 -0.00646074 -0.203029 -0.0141749)
(0.0221005 1.04889 0.0322119 0.0335607 -0.163361 -0.0609803)
(0.0294902 1.1074 0.0236201 0.0463989 -0.0408673 -0.0800473)
(0.0332379 1.20536 0.0160473 0.0268166 0.104935 -0.0608164)
(0.0357763 1.31811 0.00539309 -0.0199819 0.210128 -0.0155465)
(0.035402 1.43285 -0.00722088 -0.0716398 0.256326 0.0360193)
(0.0266149 1.53732 -0.0181056 -0.10431 0.254375 0.0774864)
(0.00707895 1.60959 -0.0251408 -0.106039 0.227228 0.100384)
(-0.0181638 1.62417 -0.0266463 -0.0834732 0.195779 0.104332)
(-0.0365709 1.56786 -0.0185792 -0.0533735 0.169356 0.0923973)
(-0.0364816 1.45923 0.00181271 -0.0321048 0.14288 0.0703557)
(-0.021082 1.35093 0.0281787 -0.0257805 0.103296 0.0481801)
(-0.00613622 1.29142 0.0484437 -0.0268299 0.045803 0.0354008)
(-0.00491183 1.2817 0.0563127 -0.0244665 -0.0198515 0.0344969)
(-0.0206153 1.28246 0.0514489 -0.0152933 -0.0821332 0.042235)
(-0.0412314 1.23638 0.033272 -0.00417057 -0.135406 0.0501445)
(-0.0428935 1.11438 0.000893415 -0.00214659 -0.170892 0.0474287)
(-0.0200764 0.972451 -0.0348854 -0.0134272 -0.168999 0.0340962)
(0.00319024 0.912757 -0.0591381 -0.0247195 -0.115697 0.021685)
(0.00921598 0.942912 -0.0727202 -0.0249528 -0.0325385 0.0165022)
(0.0125184 0.733432 -0.115999 -0.0478622 -0.0631852 0.0382291)
(-0.00887823 0.790888 -0.116077 -0.0195532 -0.00232784 0.0366458)
(-0.029941 0.817334 -0.107062 0.00673515 0.0372787 0.0332249)
(-0.041678 0.808402 -0.0884786 0.0151422 0.0546326 0.0333108)
(-0.0413307 0.762608 -0.0620334 0.00704666 0.067865 0.035822)
(-0.0290416 0.681834 -0.031708 -0.00794762 0.0749331 0.0345288)
(-0.0105247 0.598954 -0.0035688 -0.0169021 0.0417499 0.026349)
(0.00794475 0.547097 0.0118909 -0.0148022 -0.025328 0.00741003)
(0.0272015 0.521527 0.00915982 -0.0098833 -0.0774438 -0.0152648)
(0.0425897 0.527629 -0.00775903 -0.0162049 -0.0746667 -0.0265628)
(0.0413576 0.587062 -0.0312177 -0.0177604 -0.0141059 -0.0228951)
(0.0214483 0.670325 -0.0514507 -0.00439917 0.0635215 -0.0144821)
(-0.00487764 0.725644 -0.0590882 0.017856 0.123068 -0.0089241)
(-0.0205505 0.724685 -0.0476504 0.0305989 0.150318 -0.00601039)
(-0.0152399 0.684445 -0.0185474 0.022734 0.14625 -0.00355527)
(0.00521972 0.65688 0.0187804 -0.00144417 0.12085 0.0015265)
(0.0235524 0.677021 0.0533375 -0.0341443 0.0824967 0.0154017)
(0.0281514 0.725699 0.0768035 -0.0681613 0.0374453 0.041266)
(0.0209666 0.759293 0.0859426 -0.08844 -0.00679983 0.064505)
(0.0115037 0.75668 0.0830505 -0.0732231 -0.0512543 0.055859)
(0.0108022 0.729098 0.0708096 -0.016609 -0.0929129 -0.000659868)
(0.0247137 0.701748 0.051896 0.048141 -0.102956 -0.078072)
(0.0435395 0.717324 0.0327514 0.0742631 -0.0424148 -0.122284)
(0.0546307 0.784176 0.0181731 0.0504138 0.0623493 -0.104536)
(0.0585359 0.867688 0.00530386 -0.0143219 0.148813 -0.0426777)
(0.0569938 0.946435 -0.00860625 -0.0863744 0.191848 0.0286282)
(0.0454111 1.01835 -0.0219478 -0.135304 0.194615 0.0866938)
(0.0198415 1.08603 -0.0323337 -0.144774 0.17129 0.122004)
(-0.0157829 1.14208 -0.0367497 -0.119623 0.138614 0.134668)
(-0.0472413 1.16325 -0.0291019 -0.0795657 0.113118 0.127926)
(-0.0572288 1.12791 -0.00418123 -0.0469222 0.104926 0.106341)
(-0.0417747 1.04539 0.0329964 -0.0343537 0.107992 0.0788268)
(-0.0169892 0.962229 0.0670269 -0.0388853 0.10462 0.0579445)
(-0.0049395 0.919625 0.0844305 -0.0444488 0.0837563 0.0516819)
(-0.0182202 0.925945 0.0818456 -0.0372413 0.0480811 0.0587079)
(-0.0494937 0.949152 0.0596779 -0.017437 0.00334905 0.0707963)
(-0.0680134 0.921638 0.0161491 -0.00308028 -0.0497011 0.0746903)
(-0.0477116 0.813475 -0.0393465 -0.012453 -0.106102 0.0629858)
(-0.00573668 0.702337 -0.0834133 -0.0393992 -0.138184 0.0464376)
(0.0182718 0.681483 -0.10651 -0.0567616 -0.120087 0.03869)
(0.0263073 0.499034 -0.138092 -0.0803188 -0.12885 0.0553003)
(0.00662344 0.559854 -0.141102 -0.0545615 -0.0768442 0.0549514)
(-0.0210683 0.619984 -0.134864 -0.0157743 -0.0189212 0.0476459)
(-0.0415699 0.65166 -0.115632 0.00617196 0.0165196 0.0433608)
(-0.0515853 0.6522 -0.0853604 0.00672821 0.0377872 0.047139)
(-0.04858 0.614092 -0.0504785 -0.00325733 0.0651599 0.0499903)
(-0.0312754 0.541613 -0.0157037 -0.0164983 0.0755904 0.0454174)
(-0.00722218 0.464548 0.0103135 -0.0239188 0.0306436 0.0305147)
(0.0177051 0.401671 0.0175743 -0.0214236 -0.0460677 0.00517457)
(0.0427202 0.349585 0.00427031 -0.0264752 -0.102485 -0.0150436)
(0.0550048 0.340743 -0.0226758 -0.038777 -0.0940138 -0.0166793)
(0.0403532 0.394595 -0.0512323 -0.0315219 -0.0320961 -0.00820452)
(0.00673529 0.468253 -0.0684771 -0.000724144 0.038017 -0.0036745)
(-0.0212863 0.507284 -0.0634272 0.0304133 0.0870225 -0.00552412)
(-0.0221589 0.498302 -0.0330215 0.0361356 0.105943 -0.00944424)
(0.00333662 0.479246 0.01361 0.0125409 0.10067 -0.00942406)
(0.0306028 0.495635 0.0602975 -0.0257616 0.0817126 0.00258247)
(0.0365995 0.544731 0.0929144 -0.0660663 0.0572992 0.0321559)
(0.021712 0.578837 0.106869 -0.0931856 0.0339845 0.0688798)
(0.00409006 0.561769 0.105965 -0.0906452 0.00747926 0.079651)
(0.00106596 0.506081 0.0925699 -0.0393553 -0.0303668 0.0307858)
(0.0200881 0.451089 0.0672779 0.0393633 -0.0627197 -0.0651292)
(0.0499459 0.431369 0.0373998 0.0856039 -0.0493173 -0.139451)
(0.0693146 0.464765 0.014436 0.069969 0.0172819 -0.137619)
(0.073644 0.516711 0.000824607 0.000574147 0.0874054 -0.0716807)
(0.0693942 0.553686 -0.00982 -0.0806329 0.128316 0.00960787)
(0.0575761 0.5746 -0.0206187 -0.139773 0.137232 0.0755164)
(0.0349805 0.605051 -0.0308556 -0.16085 0.125415 0.117041)
(0.000124507 0.666573 -0.0381032 -0.144146 0.103073 0.137138)
(-0.0386493 0.746239 -0.0353603 -0.103425 0.0796304 0.139905)
(-0.0627081 0.797752 -0.0135034 -0.0623391 0.0682808 0.126921)
(-0.059315 0.787475 0.0266136 -0.0393239 0.076655 0.102723)
(-0.0360006 0.725715 0.0699544 -0.0378958 0.0980789 0.0781317)
(-0.0140804 0.654446 0.0984843 -0.0474582 0.116373 0.0643563)
(-0.0136444 0.618096 0.103149 -0.0501981 0.116287 0.0651342)
(-0.0410757 0.642893 0.0833036 -0.0331685 0.090039 0.0756795)
(-0.0732054 0.687428 0.0379441 -0.00843124 0.0407839 0.0845035)
(-0.0711094 0.669394 -0.0271591 -0.00384067 -0.0236946 0.0794545)
(-0.0287773 0.575917 -0.0888258 -0.031006 -0.0922421 0.0635248)
(0.0153879 0.494599 -0.124563 -0.0681406 -0.136373 0.0539146)
(0.027719 0.387462 -0.154309 -0.0852565 -0.1328 0.0596337)
(0.0224827 0.404132 -0.157625 -0.0853265 -0.123982 0.0668545)
(-0.00480941 0.460443 -0.154111 -0.047714 -0.0716643 0.0613902)
(-0.03182 0.513272 -0.138159 -0.012571 -0.0209452 0.0519908)
(-0.050119 0.548182 -0.106938 -0.000492478 0.0072434 0.0526972)
(-0.0574883 0.559709 -0.0680303 -0.0024967 0.0328024 0.0586389)
(-0.0495901 0.534087 -0.0294957 -0.0117445 0.0643156 0.0590297)
(-0.0285546 0.474461 0.00212754 -0.0246823 0.0615143 0.0527144)
(-0.00280269 0.399255 0.0197963 -0.0314291 0.00507014 0.0353726)
(0.0257056 0.31406 0.018532 -0.0351187 -0.0719539 0.0123193)
(0.0513957 0.236206 -0.0014106 -0.0517777 -0.113572 0.00150646)
(0.0538349 0.218277 -0.0311727 -0.0566867 -0.0878384 0.00378019)
(0.025193 0.266633 -0.0572797 -0.0264117 -0.0259205 0.00283393)
(-0.0111243 0.328945 -0.0641445 0.0206227 0.0306304 -0.00765331)
(-0.0210687 0.3615 -0.040379 0.0471011 0.0589557 -0.0220414)
(0.00539232 0.37346 0.00843285 0.0324179 0.0560595 -0.0309514)
(0.0406623 0.40348 0.0622079 -0.00957549 0.0349753 -0.0231332)
(0.0487044 0.460224 0.100708 -0.0543203 0.0154697 0.00821726)
(0.0230148 0.505917 0.11829 -0.0819496 0.010937 0.0559742)
(-0.00997022 0.497862 0.120873 -0.0881492 0.0122375 0.0899668)
(-0.0186263 0.423784 0.109552 -0.0553059 -0.00666725 0.0650937)
(0.00717955 0.335198 0.0812172 0.0185073 -0.040258 -0.0311543)
(0.050098 0.283067 0.0415111 0.07856 -0.0516934 -0.130885)
(0.0790987 0.289188 0.00777757 0.0742407 -0.015967 -0.151958)
(0.081829 0.313054 -0.00937704 0.0119983 0.0324474 -0.0902726)
(0.0698473 0.307172 -0.0168835 -0.0658468 0.0593441 -0.00518906)
(0.0552966 0.278334 -0.0231376 -0.124797 0.0639911 0.0621288)
(0.0407457 0.264592 -0.0292849 -0.153972 0.0615953 0.102646)
(0.0197984 0.296643 -0.0345105 -0.154287 0.0575519 0.123696)
(-0.012073 0.38611 -0.0353349 -0.128352 0.0485847 0.133001)
(-0.0442066 0.50192 -0.0212599 -0.0877728 0.0387612 0.13079)
(-0.058503 0.583854 0.0141246 -0.0529285 0.0400085 0.115601)
(-0.0510243 0.596518 0.0603165 -0.0361059 0.058933 0.0934456)
(-0.0338308 0.548224 0.0978402 -0.03577 0.0906819 0.0751335)
(-0.0223142 0.478374 0.112557 -0.0423617 0.121558 0.0677602)
(-0.0310728 0.448218 0.100432 -0.0394524 0.130992 0.0710415)
(-0.0590863 0.493299 0.060377 -0.0184743 0.104759 0.078383)
(-0.0748308 0.548826 -0.00662252 0.000400523 0.0509923 0.0777925)
(-0.0513595 0.529652 -0.0814644 -0.00854153 -0.0174354 0.0648862)
(-0.00372314 0.446197 -0.133844 -0.0469845 -0.088063 0.0544383)
(0.0109758 0.35969 -0.166773 -0.0489381 -0.0787627 0.0435161)
(0.0261701 0.31768 -0.172792 -0.0844334 -0.118154 0.0636164)
(0.0114873 0.333326 -0.168179 -0.075165 -0.106187 0.0693295)
(-0.0142965 0.379517 -0.155519 -0.0408504 -0.062844 0.0603285)
(-0.036885 0.434126 -0.126445 -0.0171501 -0.0279373 0.0556571)
(-0.0521108 0.485139 -0.0847614 -0.00926011 -0.00428486 0.060464)
(-0.055645 0.512693 -0.0421962 -0.00958079 0.0284436 0.0642657)
(-0.0457122 0.502028 -0.00889589 -0.0182922 0.0564537 0.0650083)
(-0.0279227 0.451769 0.0105158 -0.0311937 0.0409686 0.060698)
(-0.00464277 0.365051 0.0171658 -0.0360397 -0.0149268 0.0428407)
(0.0252257 0.250272 0.0107494 -0.0455735 -0.0753212 0.0228337)
(0.0468354 0.154695 -0.00657668 -0.0575004 -0.0918793 0.0133073)
(0.0385401 0.13187 -0.0277114 -0.0396003 -0.0608232 0.00402954)
(0.00825408 0.171738 -0.0419581 0.00905969 -0.0189121 -0.0168707)
(-0.00654778 0.231141 -0.03156 0.0521675 0.00276648 -0.0443928)
(0.017251 0.286205 0.00908677 0.0520326 -0.00720187 -0.0638071)
(0.0557181 0.342352 0.0599534 0.00998048 -0.0372134 -0.058795)
(0.0642569 0.398149 0.0968457 -0.038762 -0.0579208 -0.0229368)
(0.028983 0.444713 0.115692 -0.0666887 -0.0491049 0.034505)
(-0.0234193 0.462307 0.123957 -0.0727147 -0.0190675 0.0878173)
(-0.0470717 0.407425 0.119745 -0.0558506 -0.00552603 0.0924329)
(-0.0174442 0.299213 0.0937955 -0.0029175 -0.0253013 0.0139287)
(0.0422014 0.211988 0.0471007 0.0564259 -0.0464803 -0.0984782)
(0.0824001 0.17781 0.00243719 0.0624873 -0.0368229 -0.143041)
(0.079638 0.15291 -0.0199367 0.0172898 -0.0174872 -0.0928511)
(0.0565563 0.105195 -0.0276518 -0.0468014 -0.0142237 -0.0113276)
(0.0406639 0.0621096 -0.0337394 -0.0974469 -0.0168868 0.0503876)
(0.0357123 0.0457888 -0.0385948 -0.126215 -0.0116912 0.0835074)
(0.0322604 0.0577396 -0.0395298 -0.138007 -0.00188092 0.0997581)
(0.0203581 0.11048 -0.0369594 -0.135261 0.00343239 0.109883)
(-0.00347919 0.217523 -0.0275885 -0.11494 0.00233975 0.11565)
(-0.029159 0.34918 -0.00196262 -0.0815599 0.00340312 0.112145)
(-0.0444468 0.447587 0.0396931 -0.0489069 0.01627 0.0986374)
(-0.048165 0.477138 0.0816125 -0.0274475 0.043494 0.0822077)
(-0.0438363 0.440511 0.106136 -0.0205888 0.0822655 0.0701409)
(-0.0375176 0.377726 0.105404 -0.0236775 0.12093 0.0640586)
(-0.042705 0.362348 0.0769225 -0.0192547 0.134228 0.0621425)
(-0.0579174 0.416187 0.0171811 -0.000519418 0.109464 0.0587666)
(-0.0571542 0.460946 -0.062161 0.012265 0.0578154 0.0470218)
(-0.0274095 0.433059 -0.131195 -0.00436284 -0.00980724 0.0354754)
(-0.0127359 0.339033 -0.164434 0.00961883 -0.00367199 0.00835935)
(0.0108559 0.27585 -0.183566 -0.0397081 -0.0635752 0.0390333)
(0.0150499 0.237753 -0.179805 -0.0695446 -0.0921929 0.0628339)
(0.0025524 0.239609 -0.16655 -0.0622318 -0.0834645 0.0629943)
(-0.014721 0.276375 -0.140483 -0.0429558 -0.0610627 0.0561963)
(-0.0318064 0.341773 -0.0999643 -0.029042 -0.0420561 0.0565065)
(-0.0438884 0.414161 -0.0549132 -0.0188617 -0.0166875 0.0598286)
(-0.0472795 0.463264 -0.0197479 -0.0147691 0.020422 0.0636641)
(-0.0452306 0.471641 -0.00422698 -0.0224631 0.041002 0.0705929)
(-0.0379563 0.425713 -0.00197309 -0.0267078 0.0246802 0.0662755)
(-0.0175103 0.319433 -0.00113227 -0.0264125 -0.0164231 0.0439529)
(0.0126825 0.183679 -0.000369652 -0.0310878 -0.0541517 0.0202924)
(0.029089 0.0888233 -0.000895794 -0.0243889 -0.0623705 -0.00196814)
(0.0226932 0.0744008 -0.00313389 0.0129856 -0.0573007 -0.0342568)
(0.0197005 0.124691 0.0014554 0.0530026 -0.0622294 -0.0739909)
(0.0441773 0.205667 0.0247796 0.057894 -0.0865751 -0.100607)
(0.0765932 0.278736 0.057642 0.0206113 -0.115569 -0.093479)
(0.0782864 0.318882 0.082054 -0.0268304 -0.124508 -0.0496703)
(0.0382509 0.34766 0.0970022 -0.0571128 -0.107396 0.0155147)
(-0.0272384 0.38289 0.11044 -0.0601859 -0.0661982 0.0792983)
(-0.0726522 0.379322 0.11769 -0.0465757 -0.0240422 0.107799)
(-0.0509952 0.293174 0.10153 -0.015038 -0.0164431 0.0576636)
(0.0197357 0.179803 0.057471 0.0297371 -0.0334405 -0.0493577)
(0.0672575 0.0876179 0.0107162 0.044321 -0.0451969 -0.109895)
(0.0605537 0.00710514 -0.01655 0.0188949 -0.0560101 -0.0771326)
(0.0380314 -0.0506572 -0.0326715 -0.0291753 -0.070469 -0.0111398)
(0.031225 -0.0663209 -0.0479817 -0.0698165 -0.071673 0.0337799)
(0.0341069 -0.0547714 -0.0589502 -0.091735 -0.0584702 0.0527681)
(0.0362888 -0.0395291 -0.0606575 -0.10084 -0.0443339 0.061003)
(0.0367562 -0.0224508 -0.0535883 -0.107396 -0.0373775 0.0686058)
(0.0324018 0.0222731 -0.0410125 -0.111079 -0.0364147 0.0774998)
(0.017188 0.115335 -0.0208617 -0.10156 -0.0340691 0.0841005)
(-0.00783229 0.235624 0.0120263 -0.0750149 -0.0224646 0.0843199)
(-0.0349039 0.336617 0.0520928 -0.0404202 0.00065191 0.0788072)
(-0.0542477 0.381708 0.0828923 -0.0122812 0.0340225 0.0711659)
(-0.0567435 0.362789 0.0919239 -0.00127534 0.0768426 0.0620572)
(-0.0463183 0.316919 0.0770789 -0.00227833 0.117406 0.0500854)
(-0.0410139 0.311075 0.0344176 0.00461737 0.131455 0.0361312)
(-0.0437519 0.351237 -0.0349096 0.023897 0.111131 0.0187769)
(-0.0366505 0.373395 -0.110288 0.0338412 0.0626227 0.00277564)
(-0.0262541 0.284931 -0.14126 0.0558752 0.0520838 -0.0285334)
(-0.013612 0.245303 -0.179109 0.0225296 -0.00534646 0.00134257)
(-0.00274641 0.184256 -0.18599 -0.0225259 -0.0450523 0.0390032)
(0.000763315 0.137858 -0.174402 -0.0456829 -0.0606733 0.0532081)
(0.000701522 0.127172 -0.150128 -0.0492681 -0.0618218 0.0493009)
(-0.00299334 0.16494 -0.112889 -0.0464744 -0.0601148 0.0451195)
(-0.0125005 0.242631 -0.0686976 -0.0374631 -0.0518368 0.04462)
(-0.0246248 0.329744 -0.0312817 -0.0256844 -0.0250445 0.048283)
(-0.0396455 0.398576 -0.0169249 -0.0213275 0.0114042 0.0621987)
(-0.0569872 0.424407 -0.0244809 -0.0187052 0.0283546 0.0771574)
(-0.0610701 0.376408 -0.0300291 -0.00932569 0.0201156 0.0680848)
(-0.037882 0.255977 -0.0179495 -0.00138414 -0.00722933 0.035738)
(-0.00222361 0.13112 0.00501373 0.00705566 -0.0409816 -0.00356054)
(0.023124 0.0777548 0.0261913 0.0305478 -0.0766777 -0.0483204)
(0.0454226 0.103629 0.0400979 0.0506776 -0.11659 -0.0950091)
(0.0764766 0.171469 0.051087 0.0454517 -0.151815 -0.121694)
(0.0960957 0.221582 0.0606336 0.0146731 -0.162159 -0.108349)
(0.0841488 0.23031 0.0653194 -0.0255729 -0.147001 -0.0581477)
(0.044159 0.228826 0.0700057 -0.055939 -0.126762 0.00754383)
(-0.0197097 0.258986 0.0828107 -0.0584936 -0.0981423 0.0692803)
(-0.0818108 0.305311 0.100192 -0.0399494 -0.0526455 0.10958)
(-0.0827038 0.281042 0.100801 -0.0163886 -0.0196985 0.0890054)
(-0.0188527 0.172733 0.0713594 0.0122998 -0.0229804 0.00293838)
(0.0321153 0.0395714 0.0314535 0.0294112 -0.0483414 -0.0616181)
(0.0350543 -0.0637901 -0.00126248 0.0164407 -0.0779114 -0.0484055)
(0.0279118 -0.104556 -0.0302491 -0.0199971 -0.0955436 -0.00821012)
(0.0326847 -0.0936571 -0.0564644 -0.0486349 -0.0901002 0.0123483)
(0.0386006 -0.0674728 -0.0738634 -0.0580374 -0.073459 0.0148365)
(0.0391085 -0.0492447 -0.0783132 -0.0574911 -0.061507 0.0148085)
(0.0397101 -0.0420295 -0.0705478 -0.0599723 -0.0584591 0.0186621)
(0.0441238 -0.0352154 -0.0549531 -0.0699897 -0.0600367 0.0258549)
(0.0461828 -0.00685231 -0.0354286 -0.0810042 -0.0589922 0.0354602)
(0.034462 0.0596945 -0.0109274 -0.0803878 -0.0487446 0.0465335)
(0.00441078 0.155509 0.0199814 -0.0609459 -0.0275441 0.0569984)
(-0.0337243 0.24885 0.049457 -0.0293587 0.00142107 0.0638392)
(-0.0595574 0.303173 0.0640271 -0.00184897 0.0368887 0.0630085)
(-0.0599097 0.301595 0.0580127 0.0109773 0.0778069 0.0508211)
(-0.0440931 0.272522 0.0321842 0.0166123 0.111978 0.02859)
(-0.0330743 0.26528 -0.0156244 0.0305176 0.122696 0.00119351)
(-0.0312809 0.282936 -0.0794194 0.0523344 0.10162 -0.0243779)
(-0.0290442 0.210371 -0.104474 0.0747533 0.0744358 -0.046754)
(-0.0319643 0.199142 -0.15472 0.0686864 0.03015 -0.0293795)
(-0.0287891 0.156016 -0.17989 0.0350071 -0.00513295 0.00731743)
(-0.0188317 0.106402 -0.176555 0.000703029 -0.0212863 0.028499)
(-0.00316092 0.0783834 -0.154422 -0.0226311 -0.0289177 0.0284548)
(0.0126737 0.0821004 -0.119772 -0.0381726 -0.0390933 0.022946)
(0.0196341 0.116927 -0.0784058 -0.0438544 -0.0511034 0.0199855)
(0.0137617 0.175755 -0.0413707 -0.0396124 -0.0491416 0.0218744)
(-0.00725105 0.248431 -0.0250587 -0.0321922 -0.0223341 0.0375949)
(-0.0453466 0.321033 -0.0361483 -0.0236495 0.00989749 0.0680374)
(-0.0835567 0.354863 -0.0542669 -0.00552549 0.0259023 0.0857842)
(-0.0859221 0.305172 -0.0478999 0.0143797 0.0225195 0.0638937)
(-0.042573 0.198278 -0.0124414 0.0271688 -0.00731265 0.0120369)
(0.0151606 0.126543 0.0309106 0.0351762 -0.0618712 -0.0461803)
(0.0639982 0.12692 0.0606424 0.0344041 -0.122467 -0.0925473)
(0.09682 0.154676 0.0706342 0.0179865 -0.156207 -0.110515)
(0.100428 0.157508 0.064691 -0.00741494 -0.146934 -0.0897471)
(0.0755423 0.134746 0.0516987 -0.0364175 -0.118863 -0.0403763)
(0.0395487 0.112978 0.044665 -0.0591052 -0.102838 0.0137183)
(-0.0076299 0.126271 0.0515797 -0.0628245 -0.0961981 0.0607494)
(-0.0687399 0.192175 0.0711056 -0.0436247 -0.0709937 0.0996373)
(-0.0968503 0.235957 0.0867711 -0.0178446 -0.0323898 0.103152)
(-0.0596592 0.17389 0.0767391 0.00437422 -0.0229514 0.0490647)
(-0.0100308 0.0430316 0.0450053 0.0165553 -0.0522348 -0.00580913)
(0.0109012 -0.0587071 0.0076201 0.00538744 -0.0855943 -0.0126295)
(0.0228349 -0.0872846 -0.0287753 -0.0166557 -0.0957909 -0.00569437)
(0.036781 -0.0692901 -0.059643 -0.0254662 -0.0848799 -0.0140539)
(0.042945 -0.0461401 -0.0798758 -0.0188371 -0.0707818 -0.0279744)
(0.0411346 -0.0344709 -0.0861858 -0.0103889 -0.0646017 -0.0339675)
(0.0405698 -0.0321744 -0.0792976 -0.0101871 -0.0658281 -0.0318059)
(0.0460244 -0.0327066 -0.0631567 -0.0192476 -0.0685869 -0.0261136)
(0.0536525 -0.0293701 -0.0423299 -0.0339042 -0.0667771 -0.0173273)
(0.0541033 -0.0121917 -0.0199214 -0.048551 -0.0564616 -0.00258586)
(0.0377344 0.0299042 0.00275644 -0.0542289 -0.037236 0.0187738)
(0.00346108 0.0977655 0.023304 -0.0440674 -0.0120902 0.0417833)
(-0.0345507 0.172396 0.0351624 -0.0222998 0.0160479 0.0569709)
(-0.0556722 0.222271 0.0327681 -0.000312114 0.0465337 0.0560588)
(-0.0525885 0.229388 0.0172412 0.0156517 0.0770763 0.0376202)
(-0.0375687 0.211596 -0.0104357 0.030855 0.099126 0.00657233)
(-0.0279799 0.203829 -0.0517824 0.0537573 0.100936 -0.0283796)
(-0.0285625 0.1366 -0.0659713 0.0687576 0.0705943 -0.0415818)
(-0.0395128 0.142891 -0.117301 0.0853032 0.04479 -0.0407016)
(-0.0442073 0.132332 -0.16013 0.0712191 0.0185845 -0.0161764)
(-0.0313152 0.116453 -0.170076 0.0376551 0.00687344 0.00169279)
(-0.00824845 0.109878 -0.14866 0.00543589 0.0042075 0.00351462)
(0.0126616 0.106612 -0.109048 -0.0180285 -0.00251672 0.00201799)
(0.0255943 0.10013 -0.0672937 -0.0312888 -0.0188727 0.001381)
(0.0303841 0.0985227 -0.0356465 -0.0346238 -0.0343684 0.000103825)
(0.0220597 0.117047 -0.0221645 -0.0328164 -0.0298272 0.00866858)
(-0.0115095 0.168585 -0.0309439 -0.0290598 -0.00520544 0.0398161)
(-0.0688029 0.242282 -0.0532399 -0.0133812 0.0182143 0.0792438)
(-0.108084 0.280188 -0.061633 0.0137976 0.0290419 0.0868228)
(-0.0808678 0.235052 -0.0356238 0.0287478 0.0208781 0.0441797)
(-0.00306549 0.157465 0.013258 0.0225315 -0.0162622 -0.0222712)
(0.0676053 0.115398 0.0549003 0.00645343 -0.0658588 -0.070912)
(0.0985983 0.0929777 0.0692312 -0.0139968 -0.0915048 -0.0807145)
(0.0896802 0.0638196 0.0580844 -0.0323028 -0.0836299 -0.0560765)
(0.058942 0.037817 0.0394197 -0.0450978 -0.065484 -0.0165838)
(0.028343 0.0248234 0.0293521 -0.0537474 -0.0582179 0.0200191)
(0.00101732 0.0309635 0.0306595 -0.0597161 -0.0652624 0.0511689)
(-0.0415098 0.0830931 0.0424617 -0.0529725 -0.064341 0.0836404)
(-0.0844624 0.15937 0.0591905 -0.030603 -0.0402256 0.103765)
(-0.0841866 0.159338 0.0604485 -0.00712181 -0.0261583 0.08492)
(-0.0493144 0.0692606 0.0378087 0.00279525 -0.04733 0.0476184)
(-0.0126925 -0.0141262 0.00390574 -0.00425742 -0.0713728 0.0207718)
(0.0186638 -0.0367815 -0.030484 -0.00578953 -0.0728702 -0.00936941)
(0.0390815 -0.0258838 -0.0596153 0.00624541 -0.0635944 -0.0458556)
(0.0435109 -0.0165195 -0.0789895 0.0230517 -0.0577421 -0.0703793)
(0.0397579 -0.0170644 -0.0858743 0.0325188 -0.0588022 -0.0766051)
(0.0393918 -0.0230238 -0.0804393 0.0305964 -0.0641096 -0.0728466)
(0.0463423 -0.0285453 -0.0654758 0.0201339 -0.0685769 -0.0674659)
(0.0555361 -0.0292751 -0.0447085 0.00597929 -0.0667816 -0.0604044)
(0.0584725 -0.0239785 -0.0217043 -0.00935347 -0.0558949 -0.0461033)
(0.0488791 -0.0119957 -0.000341636 -0.0237443 -0.0373707 -0.0214458)
(0.0255702 0.0114574 0.0153108 -0.0322017 -0.0148425 0.00981258)
(-0.00548193 0.0494666 0.0219631 -0.0303213 0.00826926 0.0379076)
(-0.032469 0.093523 0.0184078 -0.0187259 0.0306517 0.0518929)
(-0.0449601 0.125444 0.00702147 -0.00173345 0.0511254 0.046423)
(-0.0409601 0.134641 -0.00868012 0.01732 0.068176 0.0230424)
(-0.0298791 0.131707 -0.030329 0.0403852 0.0779499 -0.0123456)
(-0.0223803 0.0748982 -0.0352847 0.0443451 0.0568494 -0.0227047)
(-0.0347399 0.0928734 -0.0795061 0.0740892 0.0487372 -0.0351587)
(-0.0420448 0.110093 -0.129494 0.0772559 0.0339855 -0.025629)
(-0.0282612 0.12368 -0.147947 0.0504083 0.0230761 -0.0146245)
(-0.00661232 0.132169 -0.125612 0.0185151 0.0162586 -0.0109442)
(0.00705537 0.126769 -0.0815962 -0.0023555 0.00801058 -0.00723629)
(0.013713 0.105061 -0.0398612 -0.0127982 -0.00319084 -0.00368014)
(0.0200314 0.0751266 -0.0149224 -0.0165755 -0.0140946 -0.00559233)
(0.0237832 0.051921 -0.0075538 -0.0166228 -0.0160903 -0.00716604)
(0.0109655 0.0568533 -0.0123155 -0.0176177 -0.00302449 0.00789552)
(-0.0338113 0.108887 -0.0265397 -0.0128471 0.0161131 0.0456788)
(-0.0922555 0.186122 -0.0423237 0.00677627 0.028003 0.0796365)
(-0.101218 0.213746 -0.039142 0.0229623 0.0314657 0.0707839)
(-0.0353615 0.160607 -0.00764976 0.0151243 0.0233856 0.0166377)
(0.0456412 0.0822132 0.0310283 -0.00566229 0.0041136 -0.0391051)
(0.0834555 0.0206001 0.0497421 -0.021601 -0.0124872 -0.0605958)
(0.0775204 -0.0161502 0.0456135 -0.0266448 -0.017947 -0.0504771)
(0.0504959 -0.0280808 0.0352667 -0.0241148 -0.0136276 -0.02634)
(0.0221273 -0.0231104 0.0302422 -0.0243501 -0.00881173 0.00137619)
(0.00366311 -0.0112342 0.0278066 -0.0369616 -0.0170467 0.030739)
(-0.0174164 0.0183108 0.0256056 -0.0528337 -0.0328062 0.0640646)
(-0.0548629 0.0801172 0.0281498 -0.0499774 -0.031964 0.0958347)
(-0.0818991 0.116736 0.0271205 -0.0298647 -0.0220521 0.104863)
(-0.0700943 0.0846622 0.0115527 -0.0120953 -0.0260215 0.0834614)
(-0.0300705 0.0402688 -0.012985 -0.00141035 -0.0328814 0.0381775)
(0.0107217 0.0236699 -0.037154 0.0161578 -0.0323785 -0.0227206)
(0.0328685 0.0179178 -0.0564446 0.0388584 -0.0329381 -0.0739176)
(0.0362175 0.00802769 -0.0700708 0.0560635 -0.0383266 -0.0974478)
(0.0331173 -0.00478412 -0.0762455 0.0611272 -0.0462653 -0.0992413)
(0.0348706 -0.017104 -0.0727759 0.0553456 -0.055162 -0.093644)
(0.044785 -0.027127 -0.060279 0.0426279 -0.0632133 -0.0888996)
(0.0570204 -0.0316468 -0.0418366 0.0270398 -0.0662885 -0.0839239)
(0.0614835 -0.0276541 -0.0207739 0.0120171 -0.0597285 -0.072128)
(0.0518479 -0.0174007 -0.000326976 -0.000615821 -0.0430635 -0.048551)
(0.0296457 -0.00659305 0.0149966 -0.0106738 -0.020659 -0.0161116)
(0.00312716 0.00282043 0.0214015 -0.0169819 0.00162232 0.0162441)
(-0.0182097 0.0142044 0.0185311 -0.0187601 0.0206488 0.0384284)
(-0.0298352 0.0308789 0.00952711 -0.014195 0.0354267 0.0446023)
(-0.0310229 0.0493792 -0.00156225 -0.00317413 0.0458803 0.0339956)
(-0.0240618 0.0629766 -0.013551 0.0151342 0.0538547 0.00798023)
(-0.0105571 0.0407831 -0.0190025 0.0115676 0.0465189 -0.000903809)
(-0.0194488 0.0603837 -0.050158 0.0436988 0.0511186 -0.0204111)
(-0.0268492 0.0904082 -0.0931741 0.0605296 0.0449778 -0.0246084)
(-0.0185679 0.114934 -0.111821 0.049027 0.0289339 -0.022491)
(-0.00680537 0.121659 -0.0909601 0.0278847 0.00768367 -0.0195028)
(-0.00379556 0.110014 -0.0497214 0.0136689 -0.0122535 -0.0115166)
(-0.00371077 0.0860131 -0.0134718 0.00435341 -0.0224294 -0.00258125)
(0.00182437 0.0557585 0.0042694 -0.0012795 -0.0205501 -0.00279543)
(0.0111616 0.0276009 0.00607214 -0.000972976 -0.0114896 -0.0115359)
(0.0138395 0.0143397 0.00268369 0.000746324 0.00117074 -0.0139066)
(-0.00748314 0.0335892 -0.00142942 0.00110059 0.0151239 0.007209)
(-0.057399 0.0930284 -0.0113487 0.00748002 0.0260901 0.0468454)
(-0.0925097 0.151352 -0.0229892 0.0181308 0.0336787 0.0688901)
(-0.0623768 0.141962 -0.0180203 0.018438 0.0395392 0.041942)
(0.00907358 0.0701383 0.00530152 0.00978575 0.0382625 -0.017609)
(0.0593552 -0.00139235 0.0269993 0.00794799 0.0272381 -0.065299)
(0.0669441 -0.041085 0.036984 0.0165924 0.0180001 -0.0810628)
(0.0473715 -0.0519232 0.0395752 0.0261691 0.0229025 -0.0701639)