/*--------------------------------*- C++ -*----------------------------------*\
| =========                 |                                                 |
| \\      /  F ield         | OpenFOAM: The Open Source CFD Toolbox           |
|  \\    /   O peration     | Version:  5.0                                   |
|   \\  /    A nd           | Web:      www.OpenFOAM.org                      |
|    \\/     M anipulation  |                                                 |
\*---------------------------------------------------------------------------*/
FoamFile
{
    version     2.0;
    format      ascii;
    class       volScalarField;
    location    "50.4676134421789371";
    object      Dtt;
}
// * * * * * * * * * * * * * * * * * * * * * * * * * * * * * * * * * * * * * //

dimensions      [0 0 -1 2 0 0 0];

internalField   nonuniform List<scalar> 
60000
(
-472.657
-462.389
-420.853
-351.138
-282.476
-253.874
-264.706
-286.918
-316.212
-366.073
-428.638
-471.679
-470.734
-435.043
-400.503
-396.683
-428.702
-482.198
-529.013
-558.571
-572.242
-586.982
-630.634
-706.815
-809.135
-923.22
-1041.46
-1149.94
-1184.36
-1071.85
-879.022
-739.462
-688.751
-707.5
-747.748
-703.184
-553.681
-442.581
-426.052
-453.056
-19.1776
-19.6563
-19.9055
-19.2552
-17.7188
-16.9933
-17.2257
-17.0193
-16.4887
-16.1986
-16.0659
-16.3096
-17.2342
-18.4941
-19.5399
-19.9421
-19.0294
-16.6305
-13.9837
-12.7549
-12.096
-11.6154
-11.6561
-12.5254
-14.56
-16.9067
-18.2641
-18.079
-16.7018
-14.4798
-12.487
-11.7755
-12.3714
-14.2279
-16.9361
-18.7087
-17.7936
-17.0751
-17.7717
-18.5308
-67.7802
-69.9058
-68.5558
-62.8438
-54.0229
-46.7101
-42.865
-41.9072
-43.1993
-47.2872
-55.2471
-64.343
-69.3306
-67.5363
-62.6827
-61.8892
-67.0206
-73.1132
-73.5233
-71.963
-72.7575
-75.1779
-82.463
-95.7805
-112.428
-128.684
-143
-152.602
-154.028
-145.077
-128.21
-111.749
-101.762
-99.6588
-102.678
-101.87
-88.4059
-71.2977
-63.14
-63.8947
-7.86625
-8.6299
-8.77517
-7.69643
-6.09876
-5.01978
-4.49065
-4.11749
-4.01993
-4.42314
-5.35175
-6.77544
-8.07032
-8.07662
-7.05818
-6.43703
-7.04482
-8.3814
-8.79482
-8.11212
-8.33122
-9.74043
-11.8389
-13.9198
-15.2469
-16.107
-17.9505
-20.9152
-22.812
-22.4799
-20.6799
-18.5428
-16.8074
-15.9098
-15.5068
-14.2363
-11.7739
-9.26173
-7.65648
-7.31129
-0.204648
-0.232091
-0.242767
-0.192472
-0.119628
-0.0851414
-0.0898976
-0.101393
-0.0952879
-0.099024
-0.114073
-0.128302
-0.151337
-0.157755
-0.1238
-0.0963909
-0.136732
-0.280585
-0.374475
-0.243574
-0.183189
-0.289057
-0.447159
-0.477241
-0.354498
-0.237392
-0.248759
-0.504949
-0.88342
-0.959386
-0.803933
-0.666549
-0.587751
-0.579392
-0.647748
-0.598439
-0.413984
-0.273699
-0.219258
-0.201609
-0.00202594
-0.00138315
-0.00119361
-0.000913767
-0.00199015
-0.00272632
-0.000730677
-0.00119816
-0.00316175
-0.00270477
-0.0027399
-0.00157663
-0.00229745
-0.00647598
-0.00924622
-0.00967724
-0.00223633
-0.0161405
-0.0749946
-0.0487465
-0.011184
-0.0187911
-0.00902421
-0.00140571
-0.0056757
-0.004416
-0.00293206
-0.000267962
-0.0300722
-0.0670199
-0.0373655
-0.00722285
-0.00122061
-0.000554769
-0.0041014
-0.0169645
-0.0088316
-0.00100309
-0.000233816
-0.00183738
-0.00010651
-0.0004135
-0.00128582
-0.00159652
-0.00205156
-0.0029945
-0.00267695
-0.00134211
-0.000987824
-0.000575372
-7.16808e-05
-0.000123698
-0.000654201
-0.0038751
-0.0082043
-0.0106956
-0.00813513
-0.000606658
-0.0272586
-0.0413709
-0.01019
-0.0142311
-0.0117595
-0.0161622
-0.0116944
-0.00281986
-0.000483898
-0.00149381
-7.95702e-05
-0.00737317
-0.00900287
-0.000942679
-0.003323
-0.00947809
-0.00525581
-0.000446291
-0.000646311
-0.00132414
-0.00252172
-0.000847106
-0.000118
-9.34152e-05
-0.000236209
-0.000259946
-0.000238948
-0.00038705
-0.000599072
-0.000484307
-0.00030251
-0.000200109
-2.89089e-05
-2.75173e-05
-6.43366e-05
-0.00048049
-0.0014866
-0.00224392
-0.00317358
-0.00119511
-0.00525537
-0.024919
-0.0149409
-0.00606444
-0.0098524
-0.0099806
-0.00418895
-0.00062786
-8.40931e-06
-2.90781e-06
-0.000276239
-1.20364e-05
-0.00102192
-0.000871588
-3.52298e-05
-0.00104164
-0.00176269
-0.000587388
-0.000173852
-0.000266404
-0.000636085
-0.000451048
-2.50779e-05
-1.66752e-05
-2.58485e-05
-2.26182e-05
-6.79237e-06
-9.55109e-06
-2.56366e-05
-4.04236e-05
-3.117e-05
-2.52346e-05
-9.78512e-06
-1.16502e-05
-1.51844e-05
-5.78203e-05
-0.000176094
-0.000164602
-0.000294126
-0.000918307
-0.000161284
-0.00735705
-0.00981852
-0.00171093
-0.00550048
-0.0032583
-0.000805323
-9.29852e-05
-1.43111e-05
-2.98258e-06
-2.39164e-06
-1.45192e-05
-7.76563e-07
-6.15624e-05
-6.47034e-05
-1.70203e-06
-6.68168e-05
-9.26655e-05
-3.83653e-05
-2.96715e-05
-4.1565e-05
-4.89167e-05
-1.75261e-06
-1.83568e-06
-2.36579e-06
-1.6753e-06
-2.3254e-07
-1.07998e-07
-1.8096e-07
-6.35375e-07
-1.30048e-06
-1.19625e-06
-2.91607e-06
-8.0585e-06
-4.58338e-06
-1.17515e-05
-2.80929e-05
-7.93362e-06
-2.44533e-07
-0.000142213
-0.000158439
-0.000942749
-0.00293063
-0.000307336
-0.0018601
-0.000891029
-0.000149053
-1.14883e-05
-4.87981e-07
-3.86677e-07
-2.81633e-07
-1.00598e-07
-5.81749e-07
-1.08419e-07
-1.75695e-06
-3.00262e-06
-6.01388e-08
-2.1654e-06
-3.12333e-06
-2.14126e-06
-1.58748e-06
-2.32471e-06
-9.43175e-08
-1.51406e-07
-1.53437e-07
-9.23232e-08
-1.02434e-07
-1.2227e-09
-4.95118e-09
-6.06727e-10
-5.69055e-08
-1.00734e-07
-2.65573e-07
-1.82768e-06
-8.26117e-07
-1.56603e-06
-4.25395e-06
-8.57106e-07
-1.7064e-06
-3.21003e-06
-4.43681e-05
-3.98684e-05
-0.000452468
-3.91389e-05
-0.000370071
-0.000189329
-2.11601e-05
-1.2292e-06
-9.66146e-08
-4.87606e-09
-7.49022e-08
-1.61929e-09
-1.31975e-09
-2.87526e-09
-6.5323e-08
-1.27729e-08
-7.67628e-08
-7.68192e-10
-7.93666e-08
-8.34515e-08
-8.72974e-08
-6.53492e-08
-9.56353e-11
-1.04028e-08
-1.54364e-08
-1.5682e-09
-1.1868e-10
-8.9305e-12
-7.28108e-11
-1.59204e-10
-3.40204e-10
-1.21392e-09
-8.15679e-09
-1.4109e-07
-8.92241e-08
-1.73268e-07
-5.90643e-07
-2.42073e-07
-9.096e-08
-1.64853e-07
-3.05712e-06
-4.37862e-07
-3.49667e-05
-4.79875e-06
-3.9374e-05
-2.53308e-05
-2.24111e-06
-1.2813e-07
-6.23692e-08
-1.44687e-10
-3.68874e-12
-6.24094e-12
-6.28732e-12
-3.56171e-12
-2.41342e-12
-9.22154e-12
-2.81317e-12
-5.21631e-13
-1.62765e-12
-1.64829e-10
-1.28934e-10
-1.63178e-10
-1.66315e-11
-4.86812e-11
-5.93255e-11
-4.65788e-12
-4.17791e-14
-4.25563e-16
-1.01641e-15
-6.38498e-14
-1.80305e-12
-6.80281e-11
-4.33296e-11
-4.2868e-08
-1.03122e-09
-5.95916e-08
-4.91187e-08
-4.373e-08
-4.20404e-10
-1.21773e-08
-6.93853e-08
-4.07054e-08
-1.49464e-06
-6.42308e-07
-2.24901e-06
-1.91675e-06
-2.76359e-07
-5.24281e-08
-3.89023e-11
-3.20173e-14
-4.98059e-16
-3.39207e-16
-1.52059e-16
-1.16139e-16
-5.84111e-17
-2.82539e-16
-2.8878e-17
-5.5751e-17
-1.24117e-15
-4.3524e-13
-2.53036e-14
-5.73951e-13
-7.97038e-16
-7.45732e-15
-1.34017e-14
-8.49344e-16
-6.72373e-18
-3.05415e-20
-4.06916e-21
-2.49632e-18
-1.2566e-15
-2.5426e-13
-6.45863e-11
-1.5195e-10
-2.19138e-10
-5.88838e-10
-2.05242e-10
-3.94504e-12
-6.0261e-11
-1.18378e-10
-2.55559e-10
-3.70858e-08
-4.93966e-08
-5.59646e-08
-6.32318e-08
-5.23894e-08
-3.43512e-08
-5.06099e-11
-7.39458e-14
-1.16506e-16
-2.26708e-19
-9.25655e-21
-1.2651e-21
-1.65383e-21
-6.4166e-22
-5.30597e-21
-1.55208e-22
-3.32518e-22
-1.69993e-20
-2.80865e-18
-3.17384e-18
-3.54287e-17
-1.35117e-20
-5.31754e-19
-1.66061e-18
-8.58904e-20
-5.58417e-22
-2.25343e-24
-4.64377e-25
-9.75815e-23
-1.31061e-20
-3.04901e-19
-1.75737e-16
-1.70025e-13
-3.45935e-12
-3.72929e-12
-5.85027e-14
-5.39567e-16
-4.2584e-17
-1.08883e-13
-1.6384e-12
-3.44915e-12
-4.01168e-12
-1.24622e-12
-8.42933e-11
-3.80536e-11
-5.66232e-13
-6.64377e-16
-1.72203e-19
-8.22283e-22
-4.76561e-24
-8.56491e-26
-2.86138e-27
-1.26547e-26
-2.7682e-27
-6.03268e-26
-1.26078e-27
-4.87747e-27
-3.25027e-26
-4.62891e-24
-1.61027e-22
-2.01325e-21
-5.76257e-25
-1.12729e-23
-8.27237e-23
-4.31175e-24
-3.32491e-26
-4.92881e-28
-4.68662e-29
-5.38492e-28
-8.8128e-26
-6.37548e-24
-1.24914e-21
-1.1481e-18
-1.09792e-16
-4.00161e-16
-1.23292e-17
-1.04674e-19
-2.92442e-21
-8.63552e-20
-4.40574e-17
-1.63202e-16
-9.41227e-17
-4.93703e-18
-1.15744e-15
-1.16471e-15
-1.60342e-17
-4.41438e-20
-9.14616e-23
-1.9173e-25
-4.72329e-28
-2.05116e-28
-5.53131e-29
-1.70957e-28
-5.76683e-29
-3.34485e-28
-1.47677e-28
-2.80327e-28
-6.56093e-28
-1.0771e-28
-5.40257e-27
-3.19743e-26
-9.87364e-29
-8.61574e-29
-1.28687e-27
-1.24896e-28
-3.67946e-29
-9.20666e-29
-6.84202e-29
-1.28059e-28
-2.3476e-29
-3.54999e-29
-3.24685e-27
-6.19586e-24
-1.6935e-21
-3.39235e-20
-2.18433e-21
-2.55376e-23
-1.88765e-25
-1.23832e-24
-6.04182e-22
-3.80873e-21
-1.14113e-21
-2.83957e-23
-1.30489e-20
-2.89012e-20
-6.59729e-22
-3.71692e-24
-1.01197e-26
-7.07261e-29
-3.68938e-28
-2.72307e-28
-1.52346e-28
-7.59883e-29
-7.81447e-29
-1.14709e-28
-7.47777e-29
-9.73773e-29
-9.37227e-29
-9.8584e-29
-1.23322e-28
-1.73414e-28
-1.04066e-28
-1.11068e-28
-8.86941e-29
-6.87094e-29
-7.14671e-29
-7.43908e-29
-5.11051e-29
-1.61634e-28
-2.22792e-29
-1.47923e-28
-9.75417e-29
-8.66858e-29
-7.56228e-27
-2.08021e-24
-2.75143e-25
-3.60749e-27
-5.54525e-29
-8.85533e-29
-6.42502e-27
-4.19344e-26
-5.19969e-27
-8.60896e-28
-2.22828e-25
-9.08078e-25
-2.74631e-26
-2.0536e-28
-2.76475e-28
-2.00091e-29
-1.29689e-28
-5.19492e-29
-1.53106e-28
-5.52666e-29
-1.4847e-28
-2.65787e-28
-4.14085e-29
-1.00901e-28
-4.25261e-29
-1.42262e-28
-1.10987e-28
-5.3253e-29
-1.41913e-28
-4.08717e-29
-8.47973e-29
-1.07041e-28
-3.7108e-29
-4.71326e-29
-1.1375e-28
-1.86958e-28
-1.99743e-29
-1.68281e-29
-4.97798e-29
-4.25533e-29
-9.94586e-29
-5.14565e-28
-1.99415e-28
-8.43747e-29
-1.26021e-28
-1.03165e-28
-7.53033e-29
-3.61115e-29
-3.07149e-29
-2.68698e-29
-7.54571e-29
-5.09788e-29
-8.90311e-29
-1.20883e-28
-5.25278e-29
-5.94676e-29
-4.6792e-29
-5.62894e-29
-6.94954e-29
-1.14055e-28
-6.75818e-29
-1.13167e-28
-9.6833e-29
-3.42793e-29
-7.02857e-29
-1.96434e-28
-5.21816e-29
-7.43853e-29
-2.53018e-29
-5.03258e-29
-2.86801e-29
-6.37873e-29
-5.23564e-29
-5.73248e-29
-3.95635e-29
-8.80549e-29
-5.30615e-29
-9.03084e-29
-1.02867e-28
-3.42106e-29
-9.21035e-29
-9.14312e-29
-7.91347e-29
-1.12416e-28
-1.17971e-28
-3.13922e-29
-9.8364e-29
-9.89083e-29
-6.56111e-29
-8.44918e-29
-3.46784e-29
-3.40565e-29
-1.04039e-28
-5.19137e-29
-1.04329e-28
-1.08754e-29
-1.02682e-28
-2.08023e-28
-6.70705e-29
-1.94843e-29
-1.11217e-28
-9.40041e-29
-2.95543e-28
-3.15749e-29
-2.15621e-28
-7.07551e-29
-6.24879e-29
-2.34397e-28
-1.57257e-28
-3.75008e-29
-6.33973e-29
-1.05196e-28
-1.50507e-28
-2.8717e-28
-1.30593e-28
-4.2235e-29
-1.00348e-28
-7.99712e-29
-2.01648e-28
-1.1457e-28
-2.02735e-28
-4.77094e-29
-1.23431e-28
-1.29589e-28
-4.69606e-29
-1.73798e-28
-5.70278e-29
-2.63058e-29
-1.01609e-28
-8.66249e-29
-1.29028e-28
-6.18439e-29
-6.12476e-29
-8.64299e-29
-2.86611e-29
-5.73835e-29
-2.90587e-29
-4.74018e-29
-9.32923e-29
-1.62547e-29
-2.64034e-29
-6.48288e-29
-1.3343e-28
-1.32531e-28
-4.8736e-29
-8.38578e-29
-6.12103e-29
-3.51556e-29
-1.0032e-28
-9.69423e-29
-7.16135e-29
-5.67248e-29
-1.59337e-29
-5.80054e-29
-5.26113e-29
-5.96723e-29
-6.52754e-29
-5.90992e-29
-5.56431e-29
-5.47932e-29
-6.34942e-29
-6.10462e-29
-4.27695e-29
-1.49946e-28
-3.30284e-29
-6.48492e-29
-4.44074e-29
-1.14845e-28
-3.6552e-29
-1.07572e-28
-1.40019e-28
-4.72459e-29
-7.95532e-29
-6.70608e-29
-6.57877e-29
-7.48785e-29
-7.7959e-29
-1.60127e-28
-3.04632e-29
-2.82793e-29
-9.64027e-29
-4.21882e-29
-8.08557e-29
-1.35276e-28
-1.5664e-28
-5.03958e-29
-1.41973e-28
-6.6193e-29
-7.91339e-29
-4.72387e-29
-7.01424e-29
-7.60077e-29
-1.6198e-28
-2.75159e-29
-2.25784e-29
-9.042e-29
-4.48566e-29
-5.5592e-29
-5.6721e-29
-8.20942e-29
-1.78187e-29
-2.21394e-29
-4.34632e-29
-5.24115e-29
-7.16168e-29
-3.84943e-29
-9.86556e-30
-2.43202e-29
-6.25457e-29
-1.72771e-28
-5.96606e-29
-9.61164e-29
-2.74369e-29
-1.17933e-28
-6.26513e-29
-1.18938e-28
-2.17542e-29
-4.51639e-29
-6.05069e-29
-5.48617e-29
-5.96913e-29
-4.63709e-29
-8.30513e-29
-2.04164e-29
-3.93191e-29
-1.30857e-28
-2.70383e-29
-3.20287e-29
-1.8319e-29
-7.10833e-29
-1.17401e-28
-1.01632e-28
-2.2657e-29
-3.58593e-29
-5.97902e-29
-5.56861e-29
-6.36761e-29
-8.58134e-29
-2.46953e-29
-6.35609e-29
-3.84803e-29
-3.72377e-29
-2.81359e-29
-7.48312e-29
-3.48101e-29
-1.13195e-28
-2.65133e-29
-2.56256e-29
-5.25926e-29
-7.70316e-29
-7.75955e-29
-6.55784e-29
-1.31754e-29
-1.25275e-28
-2.62596e-29
-3.9477e-29
-2.33317e-29
-2.16663e-29
-3.61573e-29
-5.59593e-29
-5.52791e-29
-1.12103e-28
-7.66892e-29
-3.80103e-29
-5.69088e-29
-2.00391e-29
-1.79175e-29
-2.03335e-29
-3.07145e-29
-5.32507e-29
-1.24766e-29
-8.19886e-29
-5.19172e-29
-5.94742e-29
-1.78822e-29
-7.00977e-29
-8.96254e-29
-3.14084e-29
-1.1781e-28
-1.01892e-28
-1.60815e-28
-2.14765e-29
-4.45692e-29
-3.49229e-29
-1.35239e-28
-4.86579e-29
-5.63278e-29
-5.0037e-29
-5.23637e-29
-6.76377e-29
-6.34987e-29
-2.45755e-29
-2.05174e-29
-4.76717e-29
-4.86326e-29
-1.35646e-29
-3.04314e-29
-2.18314e-29
-5.92764e-29
-2.94478e-29
-4.62433e-29
-2.65335e-29
-6.34383e-29
-1.14787e-28
-7.52793e-29
-4.19108e-29
-1.55543e-29
-8.82209e-29
-241.859
-257.758
-260.305
-264.576
-292.608
-342.462
-392.107
-412.083
-393.266
-374.919
-382.717
-412.293
-452.608
-499.144
-556.492
-628.169
-708.895
-791.051
-871.044
-916.501
-864.42
-742.944
-662.157
-665.357
-733.875
-835.423
-928.934
-975.048
-958.297
-908.222
-883.312
-907.974
-942.01
-958.776
-993.24
-898.212
-552.555
-302.237
-228.242
-224.956
-17.5253
-17.0537
-15.9968
-15.6279
-16.7549
-18.547
-19.6836
-19.6658
-18.3012
-17.0176
-16.4982
-16.5411
-17.1381
-18.0919
-19.0202
-19.7922
-20.6656
-21.5133
-21.019
-18.1709
-14.7321
-13.1648
-13.3361
-13.3895
-12.9371
-12.6521
-12.2824
-11.718
-11.2856
-11.3878
-12.2371
-13.2139
-13.7997
-15.2054
-20.5119
-27.5465
-24.1565
-18.3943
-17.0276
-17.3572
-34.218
-37.6873
-39.6156
-41.1054
-44.0724
-48.5952
-53.7476
-56.4465
-54.9259
-52.2888
-51.9938
-55.5799
-61.568
-68.0633
-75.8939
-86.4033
-99.1911
-112.748
-123.619
-125.918
-116.791
-101.308
-89.0919
-87.4759
-96.924
-111.041
-122.465
-128.283
-129.27
-127.716
-127.214
-129.235
-131.195
-131.601
-134.445
-130.896
-98.6802
-60.2345
-38.1545
-32.2157
-2.76028
-3.37776
-3.94222
-4.07989
-4.06584
-4.26155
-4.69417
-4.91552
-4.85321
-4.92477
-5.17846
-5.5984
-6.15179
-6.67828
-7.36427
-8.50355
-10.0042
-11.9883
-14.6085
-16.3451
-15.7821
-13.7092
-11.8618
-11.5427
-13.1702
-16.0005
-18.7657
-20.6415
-21.3362
-20.9944
-20.4154
-20.3496
-20.5074
-20.8009
-20.9688
-18.5427
-13.1222
-7.78822
-4.38549
-2.83889
-0.0364725
-0.045231
-0.0640952
-0.061967
-0.047198
-0.048285
-0.0776554
-0.103602
-0.090805
-0.0842887
-0.102898
-0.118358
-0.117411
-0.110168
-0.110898
-0.12561
-0.132256
-0.158109
-0.338024
-0.643588
-0.659873
-0.459965
-0.343165
-0.31779
-0.357021
-0.451644
-0.603819
-0.761212
-0.815892
-0.734255
-0.619981
-0.594446
-0.613853
-0.673344
-0.829048
-0.777672
-0.465928
-0.217696
-0.121201
-0.0610114
-0.000385852
-0.00162157
-0.00314576
-0.00458517
-0.00551886
-0.00353351
-0.000324686
-0.00468458
-0.00475888
-0.000578624
-0.0010301
-0.00151115
-0.00209789
-0.0026738
-0.00249327
-0.00124159
-0.000942978
-0.00220426
-0.00181716
-0.0463767
-0.0790046
-0.0260955
-0.010087
-0.00462281
-0.00173491
-0.000442466
-0.00363272
-0.0153872
-0.0233942
-0.0146139
-0.00411186
-0.00080577
-0.000399036
-0.00135515
-0.0108978
-0.0245643
-0.00680866
-0.000849588
-0.000315738
-0.000498567
-0.000608998
-0.00152426
-0.0037177
-0.00509217
-0.00456163
-0.00286584
-0.000833723
-0.000465177
-0.00224727
-0.000238893
-0.00177676
-0.00410163
-0.00522162
-0.00549783
-0.00471584
-0.00238476
-0.000518877
-0.000879881
-0.0021447
-0.00403596
-0.0222214
-0.0104818
-0.00545344
-0.00936006
-0.00890742
-0.00351965
-0.00032677
-0.000655171
-0.00268962
-0.00215742
-0.000270375
-0.000436707
-0.000575788
-0.00172695
-0.000734025
-0.00171993
-0.000747731
-0.00189157
-0.00376839
-0.00135924
-0.000359415
-0.000409507
-0.0010846
-0.00147924
-0.00104147
-0.000532991
-0.00023055
-4.60248e-05
-0.000669655
-0.000502209
-0.000184364
-0.00137325
-0.00201677
-0.00210846
-0.0017016
-0.000742724
-4.0708e-05
-7.29442e-05
-0.000528542
-0.00111244
-0.00413643
-0.00551544
-0.00190498
-0.00339199
-0.00285033
-0.000872741
-5.69079e-05
-3.49602e-05
-6.81148e-05
-0.000120963
-9.14393e-05
-1.74766e-05
-1.92816e-05
-2.70558e-05
-0.000310908
-7.5958e-05
-0.00066445
-0.000108004
-0.0015144
-0.00108485
-0.000119309
-8.9627e-05
-0.000198138
-0.00025832
-0.000151411
-6.20088e-05
-3.8968e-05
-1.34547e-05
-6.96357e-05
-0.000218069
-2.14485e-05
-0.000191275
-0.00043582
-0.000514747
-0.000381529
-0.000147821
-6.90267e-06
-3.49616e-05
-6.43417e-05
-0.000387568
-0.000677149
-0.00175041
-0.000620517
-0.000827602
-0.000490198
-0.000122505
-7.88032e-06
-2.34384e-06
-1.42523e-06
-1.66149e-07
-4.51826e-07
-6.65192e-08
-3.25667e-06
-1.41731e-05
-1.46502e-05
-8.3094e-06
-0.000112076
-2.69066e-05
-0.000136506
-0.000248542
-2.0076e-05
-1.83031e-05
-3.30953e-05
-3.37149e-05
-1.73363e-05
-6.33575e-06
-4.18214e-06
-4.08173e-06
-2.06424e-06
-3.3719e-05
-2.06144e-05
-1.47866e-05
-7.83383e-05
-9.61876e-05
-5.79683e-05
-2.18717e-05
-2.16371e-06
-7.99253e-06
-9.64543e-06
-6.58913e-05
-0.000106344
-0.000398562
-0.000134308
-0.000181643
-9.21995e-05
-1.7139e-05
-1.09595e-06
-2.23454e-07
-5.38024e-08
-1.34163e-08
-9.48941e-10
-4.00271e-08
-1.62436e-07
-7.87905e-07
-7.09106e-08
-2.28415e-06
-3.25398e-06
-1.07523e-05
-1.95834e-06
-2.1078e-05
-1.46919e-06
-2.32124e-06
-4.10289e-06
-3.2576e-06
-1.60661e-06
-3.36657e-07
-1.29753e-07
-5.0118e-07
-1.05911e-07
-2.42323e-06
-4.13745e-06
-9.65977e-07
-1.18031e-05
-1.2394e-05
-5.43482e-06
-2.07378e-06
-5.44294e-07
-9.20633e-07
-8.83652e-07
-7.62777e-06
-9.68557e-06
-6.47069e-05
-1.77803e-05
-3.48227e-05
-1.65174e-05
-2.12632e-06
-2.76733e-07
-7.7883e-08
-9.97929e-09
-4.76779e-11
-9.48069e-11
-5.78382e-10
-2.73484e-09
-3.22527e-10
-4.05217e-08
-7.77243e-08
-3.98759e-09
-7.96712e-07
-7.71555e-08
-5.1458e-07
-8.30679e-08
-1.5162e-07
-2.85145e-07
-2.17738e-07
-7.53495e-08
-7.00949e-09
-1.35066e-08
-2.07232e-09
-7.19959e-08
-1.16423e-07
-2.90369e-07
-3.83796e-08
-9.3098e-07
-7.29373e-07
-3.12465e-07
-8.89358e-08
-6.06509e-08
-6.66994e-09
-7.91372e-08
-3.887e-07
-4.86184e-07
-6.24052e-06
-1.60129e-06
-4.59806e-06
-1.7971e-06
-3.14776e-07
-7.85854e-08
-4.71885e-10
-5.04009e-12
-3.35297e-14
-3.10309e-14
-2.20833e-12
-9.30843e-12
-4.73267e-11
-5.9013e-10
-1.3446e-10
-3.66306e-08
-8.0376e-09
-4.75939e-08
-7.51081e-09
-1.8394e-10
-5.89808e-08
-9.36436e-08
-5.25064e-09
-6.73318e-10
-4.40203e-11
-1.62357e-12
-6.34619e-11
-2.22588e-10
-7.92742e-11
-2.30259e-08
-2.58759e-10
-1.20852e-08
-5.34231e-08
-4.32115e-08
-8.66668e-11
-4.23722e-10
-1.41121e-10
-4.98061e-08
-1.73982e-08
-1.79427e-08
-3.95537e-07
-7.92063e-08
-3.46141e-07
-2.34681e-07
-5.71702e-08
-2.60217e-10
-5.42941e-13
-9.50623e-16
-4.8002e-19
-4.27576e-18
-1.54592e-16
-1.25879e-15
-5.91962e-15
-5.80073e-14
-1.03886e-12
-5.10688e-14
-1.60796e-12
-1.41885e-10
-5.62966e-10
-3.36735e-11
-9.39768e-11
-1.55542e-10
-1.48065e-11
-1.27695e-13
-1.5186e-15
-2.01119e-16
-1.17972e-14
-8.64601e-13
-4.97701e-13
-2.01457e-14
-2.09434e-11
-1.72402e-10
-7.16939e-11
-2.31079e-12
-1.98701e-13
-1.70578e-14
-2.11699e-12
-9.33376e-12
-6.30264e-12
-8.90819e-11
-3.39631e-08
-2.67687e-10
-1.01076e-08
-3.4275e-08
-1.78602e-10
-3.86425e-13
-8.22657e-16
-1.71052e-18
-3.63179e-21
-4.0208e-22
-6.56208e-21
-1.17488e-19
-4.63266e-19
-2.54183e-18
-1.01608e-17
-9.19965e-20
-2.64033e-17
-2.43474e-14
-2.20814e-12
-1.62159e-15
-1.09875e-14
-2.17832e-14
-1.49945e-15
-9.93532e-18
-2.69023e-20
-8.28168e-21
-8.24789e-19
-3.09662e-17
-1.4001e-17
-5.77129e-19
-1.57636e-16
-1.30916e-14
-7.70382e-15
-1.65969e-16
-3.00527e-18
-2.32711e-18
-3.02292e-16
-2.51272e-15
-2.00238e-14
-2.73468e-12
-5.63848e-13
-1.8071e-11
-8.69237e-11
-7.70996e-12
-3.3152e-14
-8.528e-17
-1.51794e-19
-2.06899e-22
-2.00551e-25
-7.25924e-27
-1.33047e-25
-7.24604e-24
-2.37551e-23
-6.91357e-23
-6.70896e-23
-3.1353e-23
-4.86938e-21
-9.0466e-19
-3.41892e-17
-3.53915e-20
-6.4036e-19
-1.64518e-18
-7.81944e-20
-3.68546e-22
-4.75547e-25
-4.82286e-25
-2.97808e-23
-6.62698e-22
-3.12639e-22
-1.19624e-23
-1.84813e-22
-6.6699e-19
-7.3863e-19
-1.70307e-20
-1.68367e-22
-5.52505e-23
-1.40103e-20
-2.27866e-19
-3.48041e-18
-1.3301e-16
-9.11789e-19
-4.8201e-16
-8.42018e-15
-7.20443e-16
-4.89937e-18
-1.47861e-20
-2.95728e-23
-4.96866e-26
-1.01244e-28
-2.27315e-28
-8.29318e-29
-3.24972e-28
-7.52246e-28
-1.71764e-27
-7.41526e-28
-1.02502e-27
-2.67686e-25
-2.44137e-23
-4.74851e-22
-4.17431e-25
-1.87107e-23
-5.89894e-23
-1.8165e-24
-5.4704e-27
-7.40233e-29
-7.03405e-29
-3.94474e-28
-5.38943e-27
-4.36601e-27
-2.46709e-29
-9.26494e-26
-2.77074e-23
-6.638e-23
-2.00356e-24
-2.22223e-26
-3.11572e-28
-7.31948e-26
-4.50817e-24
-9.92825e-23
-1.48721e-21
-8.61104e-24
-6.49924e-21
-5.16463e-19
-5.73297e-20
-5.69703e-22
-2.13304e-24
-3.29814e-27
-5.40731e-29
-6.02728e-29
-7.91183e-29
-1.07329e-28
-2.07714e-28
-7.03349e-29
-9.27503e-29
-5.90033e-28
-1.83645e-28
-1.5577e-28
-1.45956e-27
-1.56302e-26
-1.26251e-28
-8.41628e-28
-1.11763e-27
-1.57777e-28
-6.74884e-29
-7.06082e-29
-6.83295e-29
-8.01189e-29
-4.05369e-29
-2.40498e-29
-1.73291e-28
-5.74741e-29
-2.04591e-27
-6.15599e-27
-7.43512e-28
-1.00523e-28
-1.33114e-28
-1.62776e-28
-1.11546e-28
-2.72438e-28
-1.89251e-27
-4.87437e-28
-5.35846e-26
-2.62564e-23
-3.2497e-24
-3.4943e-26
-1.20246e-28
-8.02767e-29
-6.77347e-29
-3.21599e-29
-1.97542e-28
-3.82559e-29
-4.53516e-29
-3.05191e-29
-5.84388e-29
-9.85528e-29
-1.06275e-28
-5.39895e-29
-1.6655e-28
-1.60404e-28
-3.92214e-29
-3.49559e-29
-3.78621e-29
-7.53356e-29
-5.47699e-29
-4.75171e-29
-8.79305e-29
-2.03375e-29
-8.61271e-29
-1.06632e-28
-9.62651e-30
-1.38534e-28
-5.32174e-29
-9.19198e-29
-1.31226e-28
-6.33104e-29
-4.73326e-29
-3.97048e-29
-1.92085e-29
-4.43056e-29
-7.07916e-29
-1.03461e-28
-2.69554e-29
-8.92936e-28
-4.06929e-28
-6.46802e-29
-6.63974e-29
-9.89923e-29
-4.65601e-29
-1.00111e-28
-2.9249e-29
-8.53356e-29
-1.26063e-28
-1.61227e-28
-1.28392e-28
-1.55051e-28
-7.38202e-29
-3.69671e-29
-5.22892e-29
-2.53556e-29
-4.49412e-29
-8.15708e-29
-4.39283e-29
-9.93013e-29
-3.98682e-29
-7.98793e-29
-1.11998e-28
-6.65216e-29
-7.74846e-29
-6.29665e-29
-1.06192e-28
-9.31931e-29
-2.109e-28
-4.19823e-29
-1.85906e-28
-7.39143e-29
-4.56432e-29
-2.81199e-29
-8.88421e-29
-1.69026e-29
-7.89394e-29
-3.1214e-29
-1.23138e-28
-8.48901e-29
-1.35864e-28
-4.59178e-29
-1.0012e-28
-4.93995e-29
-2.61583e-29
-5.09682e-29
-4.41646e-29
-4.09087e-29
-6.61982e-29
-2.36035e-28
-2.56595e-28
-1.3079e-28
-5.39775e-29
-6.5949e-29
-2.22599e-29
-4.30259e-29
-6.34431e-29
-1.03085e-28
-2.48986e-29
-4.27105e-29
-4.40508e-29
-6.14545e-29
-5.03133e-29
-3.76053e-29
-4.25034e-29
-5.29538e-29
-6.79354e-29
-6.75708e-29
-5.79575e-29
-1.25884e-28
-6.28489e-29
-2.22587e-29
-5.20922e-29
-5.1305e-29
-5.12783e-29
-1.20163e-28
-4.95926e-29
-1.32972e-28
-1.76581e-28
-8.93372e-29
-8.0942e-29
-4.61758e-29
-1.06866e-28
-1.10581e-28
-7.08633e-29
-3.83981e-28
-1.42115e-28
-1.01851e-28
-3.60293e-29
-6.66693e-29
-2.47134e-28
-4.45192e-29
-1.001e-28
-1.71359e-28
-9.36643e-29
-1.85702e-28
-7.45176e-29
-2.18673e-29
-6.95015e-29
-2.08222e-28
-6.43143e-29
-6.03733e-29
-3.88625e-29
-5.76703e-29
-5.90384e-29
-6.76424e-29
-2.82939e-29
-7.97299e-29
-1.16738e-28
-3.20259e-29
-7.89958e-29
-3.29995e-29
-2.66242e-29
-9.96297e-29
-2.86665e-29
-4.49883e-29
-5.52894e-29
-1.82815e-28
-4.92029e-29
-2.12514e-28
-8.67469e-29
-8.73529e-29
-6.58873e-29
-2.73286e-28
-2.42481e-29
-1.03147e-28
-3.29065e-29
-2.96377e-29
-5.17871e-29
-8.55949e-29
-1.15336e-28
-9.47768e-29
-1.02491e-28
-7.32371e-29
-4.39346e-29
-1.62479e-28
-6.88593e-29
-1.10294e-28
-1.14409e-28
-5.05987e-29
-1.50195e-28
-4.75057e-29
-6.21569e-29
-7.43252e-29
-3.31217e-29
-4.7261e-29
-4.53078e-29
-3.22745e-29
-5.79463e-29
-3.48379e-29
-3.77163e-29
-1.20981e-28
-3.34675e-29
-3.86136e-29
-5.5205e-29
-7.54001e-29
-9.94671e-29
-1.59014e-28
-3.8919e-29
-4.27826e-29
-1.41971e-28
-6.94547e-29
-2.30508e-28
-9.04689e-29
-5.60717e-29
-2.65277e-29
-6.9526e-29
-1.03453e-28
-1.12598e-28
-1.22972e-28
-2.2054e-29
-7.60477e-29
-8.78927e-29
-3.48656e-29
-9.01252e-29
-8.07735e-29
-5.81223e-29
-6.28649e-29
-7.71312e-29
-1.01228e-28
-1.31519e-28
-4.88658e-29
-1.11332e-28
-3.99636e-29
-2.91975e-29
-4.35478e-29
-5.64355e-29
-8.02058e-29
-1.34802e-28
-5.73455e-29
-3.22068e-29
-4.9015e-29
-7.26522e-29
-3.78759e-29
-5.50976e-29
-5.09787e-29
-3.37474e-29
-1.0911e-28
-3.12821e-29
-4.52633e-29
-5.48043e-29
-4.71471e-29
-7.1242e-29
-4.87585e-29
-5.06413e-29
-6.89853e-29
-8.05208e-30
-5.26801e-29
-7.90714e-29
-1.25274e-28
-2.97364e-29
-3.97758e-29
-1.93428e-29
-5.38554e-29
-4.14648e-29
-3.0657e-29
-5.44813e-29
-3.46081e-29
-3.4458e-29
-6.02186e-29
-3.04396e-29
-2.44698e-29
-5.37876e-29
-5.28191e-29
-3.10005e-29
-3.17009e-29
-7.05776e-29
-5.48397e-29
-5.80797e-29
-9.64256e-29
-6.65746e-29
-9.00934e-29
-2.81209e-29
-6.98494e-29
-5.17628e-29
-3.41635e-29
-5.10383e-29
-1.21735e-28
-2.87466e-29
-3.443e-29
-1.55247e-29
-1.33431e-29
-2.63894e-29
-4.56484e-29
-1.62613e-29
-3.05511e-29
-2.74889e-29
-7.13702e-29
-5.69753e-29
-1.07351e-28
-1.20442e-28
-3.26276e-29
-4.11705e-29
-4.90206e-29
-5.90841e-29
-8.78539e-29
-277.838
-276.788
-274.774
-292.7
-334.178
-385.004
-427.365
-450.984
-460.482
-463.731
-472.489
-496.253
-539.069
-599.133
-670.757
-740.867
-806.137
-878.286
-965.027
-1037.62
-1024.91
-879.028
-684.252
-574.377
-566.94
-610.954
-658.741
-685.369
-702.532
-743.007
-824.767
-928.67
-998.86
-989.407
-915.007
-777.785
-572.423
-393.387
-300.8
-275.47
-17.2311
-15.4476
-13.7618
-13.5111
-14.165
-14.8206
-15.1995
-14.9916
-14.3554
-13.7255
-13.5263
-13.7267
-14.0041
-14.3024
-14.7758
-15.2257
-15.676
-16.3607
-16.981
-16.9609
-16.2071
-15.0451
-14.4051
-14.4333
-13.2921
-11.2922
-9.85482
-9.26506
-9.58431
-10.7599
-12.3998
-14.031
-15.4513
-16.9292
-19.8077
-23.892
-24.4672
-20.9265
-18.0067
-17.5985
-34.9463
-37.0206
-39.1577
-41.9547
-46.1229
-51.4824
-56.9824
-61.2164
-64.4709
-66.5579
-68.1215
-70.238
-74.4257
-81.6999
-91.6354
-101.727
-110.505
-119.551
-129.165
-134.955
-133.313
-121.674
-100.06
-80.9285
-76.1445
-82.3911
-90.6934
-96.476
-100.561
-106.053
-114.702
-124.917
-133.022
-134.901
-130.059
-119.18
-98.2747
-71.926
-48.5182
-36.3646
-2.78157
-3.56579
-4.35193
-4.70489
-4.9961
-5.48625
-6.103
-6.8664
-7.78266
-8.52551
-8.95615
-9.21921
-9.6254
-10.4453
-11.6583
-12.8653
-13.6669
-14.4325
-15.95
-17.5995
-18.2879
-17.6399
-14.9892
-11.6415
-10.6528
-12.4107
-15.1323
-17.0277
-17.5828
-17.5234
-17.9587
-19.0775
-20.1914
-20.6733
-19.9628
-17.3093
-13.0661
-8.88793
-5.49979
-3.20142
-0.0459391
-0.062524
-0.105625
-0.123827
-0.127622
-0.135717
-0.152184
-0.180532
-0.221404
-0.262487
-0.285924
-0.293559
-0.297839
-0.303278
-0.309137
-0.308571
-0.281997
-0.241334
-0.310534
-0.558623
-0.720213
-0.667397
-0.556277
-0.429701
-0.387689
-0.483472
-0.660061
-0.784466
-0.754943
-0.629642
-0.566978
-0.623872
-0.703075
-0.73215
-0.730637
-0.651185
-0.470806
-0.280061
-0.190531
-0.105989
-0.00126043
-0.00150842
-0.00163955
-0.00173919
-0.00131904
-0.000317522
-0.000360426
-0.0019482
-0.00375333
-0.0031172
-0.000846856
-0.000610698
-0.00096845
-0.000556364
-0.000604077
-0.00092019
-0.00073249
-0.000666515
-0.000666157
-0.0114574
-0.0696613
-0.0528309
-0.0150899
-0.00520152
-0.00138923
-0.0046817
-0.0110916
-0.0126176
-0.00693813
-0.00227656
-0.000926613
-0.000877615
-0.00732014
-0.0123314
-0.01158
-0.00696728
-0.00283586
-0.0008399
-0.00410654
-0.00981341
-0.000566342
-0.00173782
-0.00464357
-0.00613445
-0.0058826
-0.00424173
-0.00265084
-0.00190068
-0.0018041
-0.00165386
-0.00189676
-0.00450461
-0.00753185
-0.00809469
-0.00681707
-0.00430418
-0.00137568
-0.000197866
-0.000810715
-0.000640868
-0.00768496
-0.0168789
-0.00215845
-0.0049319
-0.00486094
-0.0015251
-0.000437641
-0.000528998
-0.0012008
-0.0023971
-0.00270237
-0.00127396
-4.58676e-05
-0.00026947
-0.000569909
-0.000110235
-0.00117192
-0.00201594
-0.000350917
-0.00101107
-0.000235696
-0.000428512
-0.0019619
-0.0026052
-0.00262688
-0.00201316
-0.00136138
-0.000969375
-0.000754793
-0.000575684
-0.000476081
-0.00110286
-0.00267657
-0.00369008
-0.00275546
-0.00118229
-0.000338251
-2.71051e-05
-5.69724e-06
-0.000366499
-4.82266e-05
-0.00303169
-0.00126966
-0.000858767
-0.00181984
-0.00101524
-0.000362027
-0.000269936
-0.00032839
-0.000291928
-0.000172844
-7.45973e-05
-5.36922e-06
-2.22979e-05
-8.21064e-05
-0.000122529
-4.20344e-05
-0.000485166
-0.000329353
-5.819e-05
-5.51859e-05
-6.29327e-05
-0.000502155
-0.000586044
-0.000572874
-0.000460831
-0.000351013
-0.000265635
-0.000185194
-0.000119049
-7.43093e-05
-0.000120195
-0.000354597
-0.000541038
-0.00038389
-0.000141189
-4.37231e-05
-1.13874e-05
-2.07475e-06
-1.43727e-05
-3.17911e-05
-0.000237021
-0.000365007
-9.2799e-05
-0.000283808
-0.000209415
-0.000103012
-6.11431e-05
-3.87206e-05
-1.41106e-05
-2.80914e-06
-4.11121e-07
-2.84036e-07
-6.10893e-07
-8.02369e-07
-1.67761e-05
-1.32517e-05
-1.78356e-05
-3.35768e-05
-8.29463e-06
-1.01914e-05
-1.09089e-05
-9.77501e-05
-0.000110627
-9.69413e-05
-8.69414e-05
-7.52465e-05
-5.979e-05
-3.39452e-05
-1.34548e-05
-8.83638e-06
-1.11327e-05
-2.30796e-05
-3.04032e-05
-1.65524e-05
-6.04326e-06
-2.59917e-06
-1.287e-06
-2.89977e-07
-1.57308e-06
-2.60949e-06
-2.20397e-05
-5.32876e-05
-1.45069e-05
-3.65576e-05
-3.01664e-05
-1.92069e-05
-9.55339e-06
-3.56639e-06
-9.61413e-07
-9.17581e-08
-1.7253e-08
-2.78068e-10
-3.28141e-10
-5.26339e-08
-1.78297e-07
-1.15503e-06
-2.8282e-07
-8.33867e-07
-3.39739e-06
-1.03078e-06
-2.36855e-06
-1.42644e-05
-1.6117e-05
-1.26818e-05
-1.10977e-05
-8.76563e-06
-7.18548e-06
-3.22516e-06
-9.76802e-07
-4.91421e-07
-8.55295e-07
-9.35993e-07
-5.94815e-07
-1.65968e-07
-7.02886e-08
-9.0912e-08
-8.30811e-08
-7.50439e-08
-1.02258e-07
-2.33245e-07
-2.26975e-06
-5.24045e-06
-1.91116e-06
-5.02401e-06
-4.7226e-06
-2.12871e-06
-1.1301e-06
-3.93283e-07
-9.5126e-08
-1.9252e-09
-3.62221e-10
-7.90713e-11
-3.12507e-11
-2.96876e-10
-2.50633e-10
-5.79465e-08
-1.78423e-08
-2.18242e-08
-9.0782e-07
-1.29042e-07
-2.83226e-07
-1.49012e-06
-1.40963e-06
-1.18463e-06
-6.43011e-07
-5.64433e-07
-4.32712e-07
-1.25937e-07
-7.70803e-08
-5.96042e-08
-6.74359e-08
-7.07904e-08
-1.62839e-08
-9.66509e-09
-3.02485e-11
-7.33878e-11