/*--------------------------------*- C++ -*----------------------------------*\
| =========                 |                                                 |
| \\      /  F ield         | OpenFOAM: The Open Source CFD Toolbox           |
|  \\    /   O peration     | Version:  5.0                                   |
|   \\  /    A nd           | Web:      www.OpenFOAM.org                      |
|    \\/     M anipulation  |                                                 |
\*---------------------------------------------------------------------------*/
FoamFile
{
    version     2.0;
    format      ascii;
    class       volScalarField;
    location    "50.4676134421789371";
    object      Dut;
}
// * * * * * * * * * * * * * * * * * * * * * * * * * * * * * * * * * * * * * //

dimensions      [0 1 -2 1 0 0 0];

internalField   nonuniform List<scalar> 
60000
(
0.00430318
-0.00354131
-0.00866173
-0.00872358
-0.00495262
-0.000771264
0.00181466
0.00408431
0.00799523
0.0117816
0.0123615
0.0085767
0.00406302
0.00295592
0.00447158
0.00597265
0.00715017
0.010014
0.0151498
0.0225806
0.0325454
0.0444204
0.0547305
0.0662758
0.0848226
0.106158
0.117691
0.105863
0.0701604
0.0351543
0.0247843
0.030526
0.0371959
0.0359172
0.0206235
9.95544e-05
-0.00312271
0.00557857
0.0109901
0.0101637
-0.00188324
-0.0014894
-0.00103461
-0.000472688
0.000196681
0.000419488
0.000135588
-0.000165119
-0.000553958
-0.00119189
-0.00165091
-0.00159843
-0.00100975
-0.00039375
-0.000458935
-0.00115057
-0.00166079
-0.00145869
-0.000779641
-0.000146128
0.000265204
8.32004e-05
-0.00051295
-0.00109479
-0.00155838
-0.00191139
-0.00215629
-0.00232444
-0.00216812
-0.00138802
-0.000428533
-0.000106219
-0.000544643
-0.00153969
-0.00244996
-0.00189505
-9.58288e-06
0.000399239
-0.000782745
-0.00173773
-0.00166256
-0.00242275
-0.0024753
-0.00190896
-0.00012431
0.00171736
0.00210036
0.00172254
0.00169864
0.00118339
0.000174519
-0.000326287
0.000428424
0.00185711
0.00201349
0.000716975
-0.000113849
0.00170759
0.00525239
0.00769955
0.00851918
0.0080142
0.00693314
0.00818053
0.0122328
0.0175393
0.0214747
0.0213977
0.0171996
0.0128733
0.0125358
0.0138648
0.0133724
0.0107554
0.00586156
0.00140961
0.00244756
0.00527586
0.00376297
0.000401923
0.00055191
0.000326777
0.000480684
0.000495719
0.000465574
0.000755124
0.00102888
0.00095844
0.000888768
0.000831992
0.000546307
0.000360412
0.000587002
0.00102038
0.00105323
0.000624328
0.000295003
0.00074232
0.00195646
0.00281117
0.00266164
0.00219596
0.00160698
0.00165209
0.00259236
0.00386338
0.00478362
0.00499269
0.00450814
0.00414633
0.00442938
0.00502769
0.00528945
0.00498988
0.00393269
0.00249028
0.00189303
0.00221961
0.00220338
0.00135884
7.56292e-05
-2.71802e-05
-3.01147e-05
1.19102e-05
1.88209e-05
3.50586e-05
8.72136e-05
0.000132832
0.00013415
0.000134294
9.25939e-05
1.27769e-05
-2.86134e-05
-1.09836e-05
1.79568e-05
-9.47085e-07
-5.25795e-05
-7.13157e-05
0.000100937
0.00032435
0.000293246
0.000214313
7.4689e-05
-1.17208e-05
7.70335e-05
0.000156013
0.000170154
0.000148738
-1.04177e-05
-0.000205039
-0.000179958
4.89778e-05
0.000330704
0.000528996
0.000561403
0.000295304
5.25367e-05
8.89728e-05
0.000217647
0.000215635
1.24024e-05
7.09051e-08
-2.29415e-06
-1.12196e-07
3.06128e-06
4.21516e-06
1.45168e-06
4.79602e-06
1.10176e-05
1.77759e-05
2.35627e-05
7.6539e-06
1.82868e-06
9.5449e-06
1.67153e-05
2.79183e-05
1.62994e-05
-4.00198e-05
-6.27964e-05
5.24815e-05
2.40432e-05
-4.6098e-05
-2.4351e-05
-2.69706e-06
-9.39278e-06
-1.11736e-05
-5.80466e-06
1.64957e-07
-1.73767e-05
-8.66399e-05
-0.00011248
-4.70696e-05
9.04926e-07
2.3053e-07
2.76272e-05
4.79701e-05
-5.03908e-06
-1.01576e-05
-1.33771e-06
1.34091e-05
-2.06827e-06
-2.71017e-06
-7.01177e-07
3.73881e-06
9.11891e-06
1.6745e-05
1.81252e-05
8.57708e-06
-1.32059e-06
-4.21817e-06
2.94649e-06
3.75578e-06
-3.15737e-06
5.29326e-06
2.56315e-05
4.07841e-05
2.73554e-05
-2.53678e-06
-5.17772e-05
-3.54014e-05
3.21984e-05
-5.81205e-05
-5.38097e-05
-3.02367e-05
-2.14775e-05
-5.6473e-06
-1.28283e-07
7.04472e-07
2.08437e-07
-8.90055e-06
-2.94579e-05
-1.43792e-05
3.32539e-05
4.15171e-05
2.09491e-06
-1.85068e-06
-1.77014e-06
-2.50279e-06
5.80024e-06
-1.40724e-06
-1.11501e-06
-2.19539e-06
-3.0736e-06
-1.81009e-06
6.15038e-07
4.05306e-06
9.56664e-06
1.00426e-05
3.60887e-06
-1.73168e-06
-9.77781e-07
2.35087e-06
-1.82326e-06
-6.99892e-07
1.06527e-05
1.68069e-05
8.43355e-06
7.59893e-07
-1.53696e-05
-6.34187e-05
-6.45376e-06
-1.94363e-05
-5.76773e-05
-3.44732e-05
-1.28219e-05
-5.1855e-07
2.54967e-08
-3.2483e-08
3.0653e-07
1.39771e-07
-2.82055e-06
-7.29821e-06
4.50221e-08
1.63469e-05
1.76066e-05
2.59171e-06
-1.66769e-06
-3.57613e-06
-1.79512e-07
1.26685e-06
6.20421e-08
-5.62837e-07
-1.01109e-06
-7.94588e-07
-2.02832e-07
-1.36701e-07
6.64606e-07
2.05333e-06
1.77072e-06
-3.93554e-08
-2.8625e-07
1.62469e-06
-7.42975e-07
-1.3613e-06
1.9968e-06
1.91419e-06
-3.9402e-07
-2.32868e-06
-1.0581e-06
-2.94572e-05
-4.00775e-05
-3.2733e-06
-3.77329e-05
-2.03753e-05
-4.42548e-06
2.19693e-07
2.06876e-07
-4.88733e-08
-3.12821e-08
5.77468e-08
5.144e-08
-5.49547e-07
-1.29067e-06
-3.91485e-08
2.90442e-06
3.14114e-06
4.86768e-07
-6.87341e-07
-7.98018e-07
6.88534e-08
6.89106e-08
4.07971e-08
-4.09603e-08
-8.76209e-08
-3.52771e-08
-6.4381e-08
-7.28393e-08
2.30854e-08
1.75474e-07
-2.20399e-08
-6.41207e-07
3.14347e-07
-9.31201e-08
-1.12231e-06
-2.94395e-07
-8.59052e-08
-3.25442e-08
-6.78105e-07
-5.06122e-07
-4.62957e-06
-2.25578e-05
-9.3392e-07
-1.02907e-05
-8.72866e-06
-1.29747e-06
5.94783e-08
2.0718e-08
-6.9041e-09
8.54299e-09
-4.80862e-09
1.65508e-08
1.71353e-08
-6.63437e-08
-1.41311e-07
-2.31501e-08
2.68549e-07
2.97281e-07
5.29845e-08
-4.08395e-08
-9.80609e-09
2.8867e-08
5.38354e-08
4.48753e-08
2.24433e-09
-2.04939e-08
-8.9432e-09
-1.13966e-08
-2.14115e-09
-6.35582e-09
1.21044e-08
-1.83921e-07
-3.34095e-07
1.79707e-09
-5.00617e-07
-4.32008e-07
-9.33718e-08
6.2307e-08
-1.45089e-08
-1.12845e-07
-1.29983e-07
-4.57949e-06
-8.57357e-07
1.41051e-06
-1.3103e-06
-1.54026e-07
-1.73825e-08
-1.3481e-08
-6.26937e-10
-1.1871e-08
8.02507e-10
6.56549e-11
1.22043e-09
1.01268e-08
-2.20955e-09
-5.22502e-09
-7.19536e-10
1.71069e-08
2.26455e-08
1.66368e-08
1.11609e-08
7.83515e-10
2.29853e-08
2.51158e-08
-1.89268e-10
-2.31767e-09
-7.14862e-10
1.0167e-09
1.2581e-09
-1.08563e-09
2.30278e-10
-1.3095e-08
-9.5687e-08
-2.3154e-08
-1.17459e-07
-1.86497e-07
-6.53126e-08
1.68255e-08
3.7338e-09
4.20797e-08
-3.84478e-09
-2.98884e-07
-3.32717e-07
1.41594e-06
6.56261e-07
3.91521e-08
-2.17426e-08
-2.93506e-08
-1.1725e-09
-3.13961e-12
-9.30564e-11
1.01839e-10
2.96934e-11
2.78239e-11
1.65051e-10
-5.31545e-11
1.51073e-11
9.58279e-12
3.35937e-10
2.56712e-10
-4.35952e-10
1.62393e-10
9.69999e-10
1.11441e-09
-4.82485e-11
-2.97082e-11
-3.44674e-12
-3.02219e-12
1.91417e-11
6.46245e-11
-5.4496e-11
-5.76742e-11
-3.20777e-08
-3.221e-09
-2.33837e-08
-4.14053e-08
-3.16685e-08
-1.91878e-09
-6.79573e-10
2.1373e-08
9.33423e-09
-9.63091e-09
-4.58172e-08
2.8578e-07
2.40341e-07
-5.44448e-09
-2.6132e-08
-5.52132e-10
-3.46803e-12
7.04192e-14
5.82022e-13
-8.05949e-13
-7.11435e-13
2.57607e-14
-9.53415e-13
3.7284e-13
3.17708e-13
-1.1255e-12
1.10558e-11
-1.90387e-12
1.37683e-11
3.57934e-13
2.64791e-12
2.7614e-12
-1.15083e-12
-1.80668e-13
-1.02973e-14
1.64299e-15
1.85901e-14
-7.65989e-13
5.64864e-12
1.2375e-10
-8.70733e-10
-1.20935e-09
-8.4376e-10
-1.92791e-09
-2.80413e-10
3.75207e-10
-4.19125e-10
6.57047e-10
1.20447e-08
-4.87811e-09
3.72695e-09
1.49101e-09
-3.27286e-09
-1.06689e-08
-3.46966e-10
-2.71497e-12
7.0804e-14
-3.49712e-15
-3.24131e-15
2.37892e-15
3.32905e-15
-6.47288e-16
1.14741e-15
-9.61013e-16
-1.22544e-15
-4.58771e-15
3.16318e-14
3.18117e-15
1.45148e-13
3.11097e-15
-1.45383e-14
-5.86238e-14
-1.39602e-14
-5.98766e-16
1.39482e-17
-2.37796e-17
3.18574e-16
3.38358e-16
-2.05377e-14
-2.75204e-13
-2.14914e-13
8.23591e-11
2.7803e-11
-1.06754e-11
-9.84872e-13
3.12101e-14
-6.8982e-12
-8.35412e-12
1.33023e-11
9.22298e-11
-3.90137e-11
-2.19442e-10
-2.84268e-10
1.75914e-12
1.34339e-12
7.04344e-15
4.63678e-16
1.47199e-16
2.05822e-17
-2.7786e-18
-7.02408e-18
1.51809e-19
6.92565e-18
9.52651e-19
6.4327e-18
-7.88662e-18
4.25554e-17
2.10845e-16
-4.1547e-17
1.39403e-17
-2.69291e-17
-3.60259e-16
-9.64624e-17
-5.39615e-18
-3.46943e-20
5.55689e-20
-6.46077e-19
5.82741e-18
5.39488e-17
-1.48206e-15
3.64644e-14
5.80282e-14
8.52666e-13
1.25581e-13
8.56343e-15
3.8695e-16
3.34801e-15
-1.80901e-13
2.24425e-13
-1.18186e-13
-3.90813e-14
3.71168e-12
5.30686e-12
7.29685e-13
2.25277e-14
-4.39331e-16
-7.35329e-17
-3.76079e-18
-8.754e-19
-3.64434e-19
-1.00881e-19
-2.12162e-19
9.44991e-19
-4.15438e-19
6.42778e-19
2.40895e-18
-6.81438e-19
2.34392e-18
-1.15307e-18
1.0686e-19
-8.76696e-21
-5.32356e-19
-2.50767e-19
-3.75962e-20
-5.38469e-20
-1.72643e-20
-2.6927e-19
6.63361e-20
1.90145e-20
-9.47398e-19
8.48885e-17
-4.90529e-16
6.77408e-15
2.59832e-15
1.84761e-16
2.43987e-18
-6.57663e-18
3.23164e-16
-1.05425e-15
-8.66819e-16
-1.75194e-16
1.28014e-14
3.28177e-14
4.80888e-15
9.9712e-17
-1.00378e-17
-8.13089e-19
6.93523e-19
1.35227e-19
-5.79499e-19
2.52507e-19
-2.58303e-19
8.41411e-19
-1.38805e-19
-2.38322e-19
2.87929e-20
3.07634e-19
7.29435e-20
-7.86696e-20
1.73455e-19
1.19136e-19
-2.99934e-19
-4.94344e-19
-3.98966e-20
-2.31851e-19
-2.54251e-19
1.59757e-19
-9.59407e-20
2.59602e-20
-1.0259e-19
2.28414e-19
-9.33825e-19
3.52992e-17
2.05164e-17
1.20301e-18
3.62565e-20
-6.30379e-20
1.97215e-19
1.0111e-18
1.51293e-18
-8.20716e-21
7.9371e-18
1.22919e-17
-7.43245e-18
-9.83835e-19
3.36176e-19
8.20818e-20
8.59755e-19
5.83458e-19
7.70212e-19
-1.37618e-19
-2.42757e-19
-1.87198e-18
-9.01655e-19
9.84956e-19
1.57594e-19
7.15463e-19
-1.00372e-19
-1.19624e-19
7.55722e-19
2.75679e-19
-6.30946e-19
-1.99023e-19
-7.23232e-20
-3.93258e-19
9.40723e-20
-2.98247e-19
-4.10787e-21
-2.84466e-20
-9.32845e-20
1.15778e-19
8.52213e-20
6.38573e-19
2.2719e-19
-1.3868e-19
-2.65183e-20
1.03171e-19
-1.27054e-19
-8.36729e-20
9.89348e-20
1.49399e-19
-5.02314e-21
-7.37231e-19
-1.08514e-18
3.28179e-19
-4.51052e-19
1.2124e-19
-6.39724e-19
-6.46383e-19
3.88327e-19
1.40221e-19
-2.45569e-19
8.94217e-19
7.48532e-20
4.63125e-19
7.18883e-19
-3.2477e-19
2.61053e-20
-3.01351e-19
1.89397e-19
3.43408e-19
-2.45183e-19
-9.44803e-21
2.99798e-19
1.75371e-19
-3.4376e-21
1.36544e-19
-2.49439e-19
4.93825e-21
-1.04254e-19
-1.71853e-19
8.35643e-20
-5.7852e-20
-3.64933e-19
-5.28048e-19
-2.16327e-19
1.19785e-19
1.70442e-19
-1.14908e-19
-1.07529e-19
2.7572e-19
2.10925e-19
2.95149e-19
3.80058e-19
-7.08027e-20
-5.87288e-19
-4.68987e-20
-2.91763e-20
3.66861e-19
-1.2378e-19
7.16218e-20
1.29008e-18
2.81533e-19
-5.4153e-19
-3.18728e-19
9.98656e-19
4.34126e-19
-3.40651e-19
4.5122e-21
3.38622e-19
-3.79163e-20
1.06914e-19
-3.42709e-20
-4.38052e-19
9.65431e-20
9.16181e-20
-3.07815e-20
-9.68331e-20
2.31323e-20
-4.98545e-19
-7.04379e-20
-1.11049e-19
-9.3266e-20
6.16289e-20
-2.31989e-19
6.88046e-20
-1.13217e-19
-1.57792e-20
1.42911e-20
2.17069e-19
-1.96007e-19
1.91456e-19
1.95921e-20
-1.09408e-20
1.3811e-19
7.98451e-20
2.93791e-20
-6.49675e-20
-1.01295e-20
-1.32955e-19
-2.92917e-20
2.50452e-19
-3.73041e-20
-1.28637e-18
1.39395e-19
-1.05025e-19
3.55863e-19
-1.24923e-19
-9.67498e-20
1.47728e-19
-1.82204e-19
1.94419e-19
-4.40966e-20
4.24801e-20
1.38915e-20
-1.33052e-19
-3.43501e-20
-2.27654e-20
-1.05433e-19
6.42872e-22
1.5854e-19
7.48155e-20
-2.05881e-20
-3.40185e-20
-7.36434e-20
-2.42763e-20
1.45951e-19
2.4163e-19
-3.90589e-19
-7.1552e-20
1.40126e-19
-1.59393e-19
1.27396e-19
3.67286e-19
7.29389e-20
-7.92301e-20
-4.12303e-20
6.06969e-20
-2.50163e-19
2.78929e-20
-3.04554e-20
2.50182e-19
7.04762e-20
6.66547e-19
1.40558e-19
1.42452e-19
4.36145e-20
-2.82698e-19
-1.51261e-19
-7.02919e-20
-6.70403e-21
3.86224e-22
-1.04098e-20
1.65529e-19
-1.54379e-19
4.25663e-20
2.93603e-19
-3.31786e-20
-1.98145e-19
1.45743e-19
-8.06731e-20
-1.77677e-20
-6.62662e-20
-7.43915e-20
2.20496e-20
-1.43579e-20
-9.56905e-20
4.19927e-20
6.11044e-20
-6.46832e-21
2.79115e-20
-2.34421e-19
-1.5104e-19
-7.68609e-20
1.38915e-20
9.24021e-20
-1.82243e-19
-1.48298e-20
1.2763e-19
-1.18724e-20
1.62313e-20
3.25582e-19
2.29728e-20
1.62495e-19
6.85419e-20
1.95751e-19
-1.44198e-19
-2.5212e-20
-8.79202e-20
4.40081e-20
-1.74258e-19
-5.64803e-20
-1.03702e-20
2.15965e-20
6.53776e-20
-2.23682e-22
-3.3665e-19
6.07682e-20
2.44658e-19
5.21368e-20
-2.33106e-19
1.02725e-19
7.49631e-20
5.3449e-20
9.78628e-20
-1.45175e-20
2.42071e-19
1.64229e-20
3.84347e-20
3.29308e-20
-1.84926e-19
-2.19143e-20
1.55567e-19
-2.39374e-21
-3.70465e-19
4.28592e-20
6.27567e-20
7.14808e-20
9.16429e-21
4.4917e-21
-7.46882e-20
1.48284e-19
-1.68199e-19
-8.54497e-20
-4.95935e-20
4.45032e-20
5.76686e-20
5.5163e-20
8.48571e-20
3.31744e-20
1.14611e-19
2.07367e-20
6.12629e-20
5.23744e-20
-1.03923e-19
-1.85025e-20
1.78221e-19
-1.42109e-19
-1.51539e-19
1.68639e-20
2.13955e-21
-1.43733e-19
5.93706e-20
1.03279e-20
-6.28944e-20
-3.3182e-20
-1.56698e-21
1.00393e-19
-1.56033e-20
-2.1722e-20
-4.79908e-20
-9.60525e-21
6.13411e-20
-6.40796e-20
5.05363e-20
5.94349e-22
2.77866e-20
5.16993e-20
-2.16608e-20
-4.58889e-20
-4.31534e-20
-9.08583e-21
-9.35993e-20
-1.32222e-19
1.11127e-19
8.04656e-20
3.24962e-20
1.33758e-20
1.2292e-20
0.00180838
0.00127087
0.00158313
0.00431487
0.00872723
0.0122549
0.012548
0.0100363
0.0083428
0.00993901
0.0133685
0.0178183
0.0235434
0.0305799
0.0384751
0.0464341
0.0533856
0.0579797
0.0582261
0.048343
0.0335331
0.0328812
0.0438111
0.0526355
0.0602552
0.0680133
0.0696617
0.0630382
0.0571327
0.0614236
0.0743995
0.0872488
0.0890281
0.0715332
0.0308505
-0.0220544
-0.0319219
-0.011569
-0.00161237
0.00133148
-0.000240456
-0.000162664
-0.000245515
-0.000459822
-0.000727233
-0.00114326
-0.0014519
-0.00122818
-0.00055942
-0.000216516
-0.000401268
-0.000639799
-0.00077477
-0.000992195
-0.00144466
-0.00197786
-0.00239898
-0.00269099
-0.00276716
-0.00202791
-0.000275844
0.00105885
0.000788868
-0.000576126
-0.00162383
-0.00202912
-0.00191143
-0.0014916
-0.00104452
-0.000737651
-0.000644491
-0.000814582
-0.0012371
-0.00208233
-0.0035648
-0.0030034
0.00192086
0.00317725
0.00131884
1.56165e-05
-0.000282096
-0.000249727
8.37236e-05
0.00049392
0.00123157
0.00185988
0.00180362
0.00155513
0.00189432
0.00253508
0.00248333
0.00226425
0.00264254
0.00323017
0.00370596
0.00478034
0.00722444
0.0103408
0.0125818
0.0128163
0.013535
0.0160147
0.0144636
0.00962254
0.00788024
0.00944917
0.0117266
0.0131285
0.0141944
0.0158897
0.0179172
0.0191874
0.0188405
0.0160954
0.0097482
0.00012959
-0.000630266
0.00591909
0.00405712
0.000986681
0.000184274
1.24416e-05
0.000132796
0.000247597
0.00037635
0.000598417
0.000807453
0.000838074
0.000756925
0.000818864
0.000866456
0.000729227
0.000670658
0.000692373
0.000712358
0.000942118
0.00163891
0.00256014
0.00331972
0.00381693
0.00427262
0.00481322
0.00428139
0.00267955
0.00189994
0.00245617
0.0034478
0.00410407
0.00452875
0.00492548
0.00524202
0.0054573
0.00555851
0.00541411
0.00481693
0.00358218
0.00201028
0.0021711
0.00205041
0.000903174
6.02254e-05
1.8865e-06
-9.28334e-06
-6.33584e-06
-7.3003e-06
3.15186e-06
3.9469e-05
7.84031e-05
6.36659e-05
4.50068e-05
5.83142e-05
4.9707e-05
1.61505e-05
-6.59301e-06
-2.02007e-05
-1.08637e-05
4.0877e-05
8.86807e-05
0.00010452
9.6045e-05
0.000200641
0.000373734
0.000381965
0.000220933
7.18021e-05
7.16361e-05
0.000119573
8.58784e-05
1.41148e-05
7.83994e-06
6.29399e-05
0.000139458
0.000219347
0.000295608
0.000301229
0.000138078
7.68248e-05
0.000183036
0.000298637
0.000195273
-9.01859e-06
-4.80435e-06
4.44512e-06
7.74005e-06
1.05493e-05
7.90763e-06
-2.14326e-06
4.57397e-06
1.36652e-05
4.02533e-07
-2.00378e-06
-1.33994e-06
6.3824e-07
6.42742e-06
9.5976e-06
2.71161e-06
-3.40004e-06
-5.47064e-06
-1.99858e-06
-4.14425e-05
-4.22137e-05
2.75005e-05
-2.30294e-05
-3.05088e-05
-6.2518e-06
-4.41958e-07
4.89738e-06
-2.17248e-06
-2.57083e-05
-3.32656e-05
-1.72156e-05
-6.02113e-06
-1.44882e-06
2.31627e-06
4.97856e-06
-1.43504e-05
-2.39398e-05
3.64216e-06
-6.52546e-06
1.44285e-06
-1.90608e-05
-1.62836e-05
-2.46635e-06
8.11614e-06
1.22717e-05
1.19609e-05
5.63658e-06
-4.31225e-06
6.94645e-06
2.07853e-06
-5.5442e-06
-4.07208e-07
4.39089e-06
1.09348e-05
9.81957e-06
-1.20172e-06
-4.15914e-06
-4.3507e-06
-2.82073e-06
-1.25844e-05
-3.44365e-05
3.10299e-06
-2.06515e-05
-3.59254e-05
-2.16363e-05
-1.16292e-05
-2.42094e-06
1.1358e-06
-4.03564e-06
-9.22643e-06
-3.03729e-06
5.39823e-06
8.578e-06
1.46858e-05
5.62505e-06
-1.08472e-06
-6.0917e-06
2.15468e-05
1.49807e-05
-1.7221e-05
-1.18374e-05
-1.3668e-05
-9.23156e-06
-3.6714e-07
3.97042e-06
4.92926e-06
3.99318e-06
-1.60179e-06
-3.50314e-06
6.10742e-06
-4.82624e-06
-3.12395e-06
4.01509e-06
6.9586e-06
2.70657e-06
-2.86757e-06
-1.13524e-06
-8.42307e-07
-1.20444e-06
-4.48269e-06
-1.47303e-05
-6.02839e-06
-6.79215e-06
-1.73403e-05
-1.32313e-05
-5.90881e-06
-7.38187e-07
2.19249e-07
-1.19269e-07
-7.00174e-07
-1.14723e-06
-6.80985e-07
-1.10423e-06
1.51765e-06
5.21046e-06
-6.37767e-07
-2.81507e-06
3.3164e-06
1.89149e-05
2.82702e-06
-2.11432e-06
-6.40019e-06
-6.96416e-06
-2.22111e-06
9.41361e-07
1.20301e-06
1.07198e-06
4.18659e-07
-2.86383e-06
-2.36488e-08
6.83396e-07
-4.74472e-06
-6.15852e-07
1.88383e-06
-5.02942e-07
-1.59987e-06
-9.41623e-08
-3.53502e-07
-1.22862e-07
-2.06411e-06
-4.32098e-06
-5.46968e-06
-2.65578e-06
-6.59406e-06
-4.75611e-06
-1.67649e-06
-5.04761e-08
2.14368e-08
8.32173e-09
-5.56423e-10
-4.50897e-09
-7.11899e-09
-1.74418e-07
-6.19308e-07
7.43106e-07
5.49765e-07
-1.31503e-06
-9.31254e-07
4.59924e-06
6.06962e-06
6.49887e-07
-1.55909e-06
-2.79859e-06
-9.05897e-07
3.41525e-07
1.83134e-07
1.24372e-08
6.30269e-08
-3.22575e-07
-1.61244e-06
3.87572e-07
-1.91328e-06
-2.41634e-06
-8.69e-07
-7.73084e-07
-4.1166e-07
7.64701e-08
-1.90468e-07
-1.78272e-09
-6.00446e-07
-5.83322e-07
-2.30943e-06
-9.76987e-07
-2.10187e-06
-1.65257e-06
-2.88992e-07
5.19884e-08
2.44646e-08
5.69443e-09
1.41287e-09
-3.19032e-10
-7.88496e-09
1.66697e-09
-3.78526e-08
-1.41945e-08
1.51725e-07
-1.84117e-07
-3.58207e-07
3.0108e-07
1.66899e-06
3.19147e-07
7.72227e-08
-4.17112e-07
-2.1145e-07
-5.30499e-09
-3.89536e-08
-4.27863e-08
-9.02692e-08
-1.51718e-08
-3.24781e-07
-3.85952e-07
-2.78683e-07
-1.31146e-06
-8.23757e-07
-2.61485e-07
-1.72743e-08
6.12756e-08
-4.48955e-08
-6.3968e-09
-7.7943e-08
5.72625e-08
-4.08911e-07
-2.87209e-07
-3.758e-07
-2.68055e-07
5.55995e-08
2.99112e-08
6.83264e-09
3.41917e-10
-4.00663e-11
7.1446e-10
2.22381e-09
-3.13197e-09
-2.80255e-10
-6.91308e-09
1.57852e-08
-4.85561e-10
-3.89287e-08
-2.41991e-08
1.43017e-07
4.52579e-08
1.44152e-07
1.09181e-07
-9.90717e-09
-4.49712e-08
-1.63405e-08
-1.28353e-08
-5.41679e-09
-2.79619e-08
-5.39591e-09
-7.97829e-08
-2.0462e-08
-2.17589e-07
-1.67195e-07
-4.04849e-08
-2.16479e-09
9.10842e-09
-8.61065e-11
-3.4677e-09
1.41888e-08
2.6998e-08
-1.0167e-08
-1.00231e-07
1.6127e-07
1.16579e-07
3.1245e-08
8.86507e-10
-3.82551e-10
-3.92448e-11
-5.95237e-12
-1.44818e-11
2.1223e-10
4.02877e-10
-3.40692e-10
-8.14552e-10
2.11869e-10
1.00425e-08
-9.0037e-10
1.26837e-09
-4.67228e-09
5.35554e-10
9.76039e-08
1.2484e-07
3.59358e-09
-6.64146e-09
-2.06506e-09
-2.30106e-10
-7.70798e-10
-7.13053e-10
2.61959e-10
1.71264e-10
-1.10899e-09
-8.34265e-09
-2.95099e-08
-1.72529e-08
-2.62213e-10
8.36718e-11
9.85296e-11
-6.58263e-09
1.26108e-09
5.69769e-09
-2.39302e-09
-2.98712e-08
8.00677e-08
3.47796e-08
-7.87594e-09
-8.25746e-10
7.61081e-12
1.2688e-12
1.45124e-15
1.32165e-13
-1.90213e-12
-6.31023e-12
8.94452e-12
4.49993e-13
-8.42531e-11
-1.26109e-11
-7.04635e-11
2.23844e-10
8.12674e-10
1.65579e-10
2.53857e-09
3.94731e-09
1.36517e-10
-7.65594e-11
-9.99636e-12
-1.78976e-12
2.44602e-12
1.95007e-11
2.2827e-12
5.30906e-12
-1.84111e-10
-4.96676e-10
-6.00229e-10
-1.33742e-10
-2.65668e-11
9.49012e-13
3.04138e-11
-5.00537e-12
9.31504e-11
-2.03229e-10
-3.59957e-09
-8.03982e-10
2.07652e-09
-4.97894e-09
-3.28378e-10
3.16268e-11
2.73194e-12
9.08661e-14
6.02679e-16
-8.22204e-16
8.09265e-15
5.11041e-14
-1.01446e-13
9.4651e-14
1.47354e-13
-1.64375e-14
3.55284e-13
-4.6292e-12
-5.34657e-11
-4.68711e-14
5.48399e-12
8.92894e-12
-1.05194e-12
-2.69911e-13
-1.3169e-14
2.84537e-15
8.71366e-15
-2.27063e-13
-1.09822e-13
1.13296e-14
-5.71063e-13
-4.46371e-12
-2.94387e-12
-6.51727e-13
-5.85999e-14
2.81083e-14
-6.1674e-13
5.75856e-13
-5.19357e-12
9.71519e-11
-2.2621e-11
-2.55041e-11
-1.3143e-10
1.03096e-10
2.23343e-11
1.45073e-12
2.89842e-14
-6.72851e-16
-4.4783e-17
4.49019e-18
-8.68876e-18
-1.30801e-16
4.79901e-16
-7.18025e-16
4.32679e-17
-2.87733e-16
4.04133e-15
-4.81876e-14
7.02035e-14
1.03109e-15
-1.36154e-14
-3.22231e-14
-5.81898e-15
-2.56182e-16
-7.22287e-18
-5.22258e-18
-2.88849e-18
4.21162e-16
3.94883e-16
-1.6281e-17
5.96119e-16
-2.8013e-14
-8.61472e-15
1.06425e-15
4.8326e-16
-2.87364e-16
3.32154e-15
2.74378e-15
-3.21692e-14
-3.30416e-13
-3.70548e-14
1.62864e-12
1.01559e-11
5.17883e-12
4.59982e-13
1.07688e-14
-5.17145e-16
-4.5873e-17
2.69764e-19
-5.98027e-19
3.73269e-20
-3.05398e-19
1.12249e-18
3.46537e-18
-3.80613e-19
-8.14624e-19
3.04222e-17
-2.709e-16
7.4338e-16
1.69066e-17
-2.11416e-17
-8.55588e-17
-1.42231e-17
-7.83297e-19
-8.46985e-20
6.10505e-20
-1.04786e-19
9.04001e-20
-6.36511e-19
-7.84761e-20
1.88516e-18
-8.97256e-17
4.27562e-17
5.7619e-17
8.61276e-18
6.0991e-19
1.02895e-18
-6.08391e-17
4.10026e-16
-1.74092e-16
-1.18829e-16
8.59197e-15
1.24039e-13
4.54895e-14
1.89156e-15
-1.28673e-16
-1.09734e-17
-1.70171e-19
1.76966e-19
1.97198e-19
-4.68801e-19
-1.3787e-19
2.44352e-19
-1.025e-18
2.00679e-18
2.09219e-19
2.23491e-19
-2.44988e-18
6.83967e-18
7.65504e-19
-3.8281e-19
5.08816e-20
-4.96619e-19
3.86542e-21
-2.93316e-19
2.27305e-20
5.01121e-20
-2.53859e-20
1.85581e-20
2.43512e-19
-2.60886e-19
1.63697e-18
1.8152e-18
3.37034e-19
2.26197e-19
-2.3985e-19
6.82681e-19
3.47512e-19
-2.80155e-19
-1.05281e-18
-9.77258e-19
1.2966e-17
4.142e-16
1.04255e-17
-2.14711e-17
-1.56609e-18
-8.81606e-20
-1.44038e-20
2.76599e-19
-4.6173e-19
4.10967e-21
-2.50799e-19
1.17215e-19
-4.10825e-19
5.64635e-19
7.18711e-19
7.87125e-22
-5.60023e-19
-1.02441e-18
-2.55456e-19
2.06654e-19
-3.4141e-19
-6.9442e-19
-1.03896e-19
1.1991e-19
1.76029e-19
-1.65193e-20
8.99513e-20
-1.05588e-19
5.13458e-20
6.69741e-19
-5.96536e-19
1.22154e-19
-2.61596e-19
-2.99476e-19
6.42538e-20
-5.93219e-20
-5.1907e-20
-2.76656e-20
-1.78741e-19
2.39348e-19
4.94851e-20
-9.31435e-19
-2.17116e-18
1.15257e-18
-3.33819e-19
1.49713e-19
-2.19373e-19
1.01705e-18
-4.44122e-19
-4.97832e-20
7.9849e-19
5.37397e-19
-5.15074e-19
-1.05784e-18
7.07762e-19
6.3894e-20
6.35147e-20
-1.7735e-19
-1.17095e-19
3.55985e-19
2.71667e-19
-1.31925e-19
-1.18571e-19
1.7598e-19
-2.9172e-20
6.28874e-20
-1.12847e-19
1.96005e-21
-2.07847e-19
2.65485e-19
-6.91158e-19
7.18205e-20
8.04249e-19
-5.73811e-19
-1.57919e-19
-1.48326e-20
-4.74987e-20
3.13634e-20
1.98927e-20
-6.73697e-20
2.85948e-19
-4.89027e-19
-8.19712e-19
2.43269e-19
1.27798e-19
1.1071e-19
-3.34611e-20
1.7857e-20
4.45978e-19
-1.36482e-19
1.79956e-19
-2.61222e-19
-3.84276e-19
-3.20701e-19
-3.63574e-19
2.44946e-19
-3.13512e-20
-9.89994e-20
-4.16292e-20
3.12271e-19
-5.78564e-20
-1.59658e-19
-1.10741e-19
-4.36968e-20
-2.7716e-20
-1.08019e-19
-1.16042e-19
-1.45002e-19
-9.44172e-20
1.48739e-20
-2.61856e-19
1.63476e-19
-1.2165e-19
7.17417e-20
-1.0585e-19
2.77283e-21
-3.75651e-20
-2.75843e-19
-2.10683e-19
2.78705e-19
-2.22161e-19
6.60819e-20
1.54068e-19
1.10878e-19
-2.08914e-19
-2.6974e-19
1.91704e-19
4.29791e-19
-6.08826e-20
3.78702e-19
3.90714e-19
-1.03155e-20
-1.05893e-18
3.98443e-20
-9.74606e-20
-1.69954e-20
4.30474e-19
5.27515e-19
9.47843e-20
-1.04601e-19
-1.84223e-19
-9.72394e-21
1.11768e-20
-3.86733e-20
2.23744e-19
-3.05556e-19
5.67554e-20
-9.1983e-21
-6.44491e-20
-1.02992e-19
-4.89168e-22
5.7331e-20
1.38096e-19
6.10741e-20
2.49451e-20
-6.85999e-20
-1.55706e-20
-5.07193e-20
-6.54458e-20
5.91956e-20
6.90148e-20
-4.78717e-19
-5.70562e-19
-1.07429e-19
-2.90089e-19
1.13484e-19
2.18153e-20
1.32659e-19
9.37665e-20
2.43225e-19
6.25653e-21
-2.71453e-19
-6.32759e-19
-2.16358e-19
6.51433e-20
-6.64394e-20
-6.02885e-20
-2.70954e-19
-1.05367e-19
-1.1452e-19
-1.46249e-19
-1.55802e-19
-3.28542e-19
2.84708e-19
-4.77633e-20
3.33372e-19
1.5044e-19
4.06676e-21
3.99118e-19
1.15224e-19
-2.1775e-19
8.11747e-20
-2.12838e-20
-4.84214e-19
-1.10282e-19
3.19362e-19
6.91029e-21
9.3527e-20
-1.67034e-19
2.19933e-19
-9.31669e-20
-6.13321e-21
5.1072e-20
-4.78156e-20
1.08475e-19
-1.29038e-19
-2.94377e-20
-9.82051e-20
-7.59255e-20
5.45759e-21
2.38543e-19
2.94727e-19
1.89724e-19
-3.38309e-20
1.57361e-19
-1.12687e-19
1.74562e-19
1.48359e-19
1.50542e-19
1.16286e-19
-1.43604e-19
4.16798e-20
2.25094e-19
-1.46263e-19
2.62803e-19
2.66442e-19
-9.73301e-20
8.28937e-21
-2.2636e-20
-1.36291e-19
-1.93823e-19
1.39261e-19
-3.14593e-20
1.0156e-20
-1.43297e-19
-1.89623e-19
1.37561e-19
-1.31103e-20
-7.84707e-20
1.64582e-19
-6.73929e-21
6.70904e-20
-3.39865e-19
1.82747e-19
2.57201e-19
-1.09432e-19
-5.26152e-20
2.28033e-20
-3.48989e-20
5.64903e-21
3.38627e-21
1.49603e-19
-2.10663e-20
-2.89257e-20
6.10683e-20
2.99343e-20
-1.10447e-19
5.21734e-20
4.15397e-20
3.46074e-20
1.82809e-19
1.15495e-19
2.11879e-20
2.76132e-20
-6.29674e-20
-5.35023e-20
-9.7936e-20
-4.92503e-20
8.56196e-20
-2.51141e-19
3.44346e-19
3.99861e-19
-1.37777e-20
6.08228e-20
-7.13051e-20
1.03079e-19
1.33936e-19
1.95446e-19
6.84907e-20
-1.12732e-19
5.44146e-20
2.49944e-20
5.59257e-20
7.16907e-20
8.1586e-20
-3.45761e-20
-7.87826e-20
9.04152e-20
2.36199e-22
-4.86989e-20
-4.12118e-20
1.78428e-20
-4.61086e-20
5.63371e-20
5.56195e-20
-4.0601e-20
-9.20459e-20
5.74621e-20
0.00450418
0.0026629
0.00371855
0.00824923
0.0136174
0.0171666
0.0181343
0.017073
0.0159715
0.0169632
0.0213277
0.0286942
0.0379713
0.0477841
0.0570967
0.0651658
0.072985
0.0819439
0.0890891
0.0812152
0.0483039
0.0148396
0.00947388
0.0171218
0.0209477
0.0217518
0.0232585
0.0290049
0.0416037
0.0598299
0.0780324
0.0862571
0.0746939
0.0446953
0.00957893
-0.0164079
-0.019976
-0.00900228
0.000168296
0.00454539
-2.6908e-05
-0.000162282
-0.000373398
-0.000623498
-0.000870534
-0.00108657
-0.00124597
-0.00134717
-0.00133781
-0.00115241
-0.000923856
-0.000860124
-0.000984555
-0.00118526
-0.00134955
-0.0013788
-0.0013584
-0.00155237
-0.00207728
-0.00265883
-0.00238415
-0.000446163
0.00113919
0.000372685
-0.00118212
-0.00171636
-0.00146227
-0.00106558
-0.000869733
-0.000928795
-0.00120792
-0.00165941
-0.00219747
-0.00259471
-0.00252187
-0.0012779
0.00123604
0.00216788
0.00129587
0.000354846
0.000787911
0.000372457
0.00072286
0.00118559
0.00151576
0.00163946
0.00155163
0.00122292
0.00100889
0.00151795
0.00281205
0.00409078
0.00491203
0.00575444
0.0074026
0.0102709
0.0138763
0.0168022
0.0176668
0.0152637
0.0103515
0.00899206
0.0121354
0.00973266
0.0040095
0.00158164
0.00277993
0.00604292
0.00972093
0.0126598
0.0145481
0.0151652
0.0139321
0.0109044
0.00705106
0.00353187
0.0036961
0.00643697
0.00559562
0.00265449
0.00049228
0.000202237
0.000328928
0.000488776
0.000561848
0.000591186
0.000592487
0.000583171
0.000631166
0.000826551
0.00112978
0.00140113
0.00149076
0.00153369
0.00184322
0.00259505
0.0035668
0.00421157
0.00423844
0.00376544
0.00322148
0.00347665
0.00456632
0.0040089
0.00210816
0.00121775
0.00168606
0.00282596
0.00383204
0.00430795
0.00440998
0.00438444
0.00429171
0.00417397
0.00412377
0.0039084
0.00317144
0.00275638
0.00250823
0.00143223
0.000105099
2.68118e-05
1.56755e-05
2.7646e-05
3.11013e-05
2.90797e-05
2.24194e-05
5.45157e-06
-1.8899e-05
-2.22198e-05
1.27517e-05
5.55774e-05
7.4143e-05
7.35494e-05
9.38993e-05
0.000158323
0.000226792
0.000233557
0.000196517
0.00010464
-3.27929e-05
-2.84129e-06
0.000310197
0.00045948
0.000263425
4.82942e-05
-1.24859e-05
6.35061e-05
0.000167503
0.000221803
0.000221771
0.000187165
0.000125055
6.80133e-05
5.39962e-05
0.000105098
0.000195819
0.000276619
0.00038058
0.000331773
2.26213e-05
-7.36226e-06
5.1415e-07
1.08461e-06
2.41856e-07
1.37602e-07
-2.2313e-07
-2.69458e-06
-6.79821e-06
-8.62084e-06
-4.29156e-06
-9.98155e-07
-1.73813e-06
-1.69283e-06
-1.96065e-06
-3.4208e-06
-1.68165e-06
-4.14914e-06
-3.22071e-06
2.97212e-06
-2.82651e-05
-3.89278e-05
1.1658e-05
-6.67854e-06
5.90622e-07
4.71138e-06
-7.66194e-06
-1.25865e-05
-7.55367e-06
-8.31687e-07
1.01715e-06
-2.7538e-06
-1.53913e-05
-2.82836e-05
-3.36277e-05
-2.71767e-05
-1.2524e-05
-3.98874e-06
2.35925e-05
9.68311e-05
2.25147e-05
-2.00438e-05
-3.13475e-06
4.66537e-06
4.1751e-06
2.59787e-06
1.05719e-06
-1.95202e-06
-4.20849e-06
-1.32757e-06
5.95038e-06
1.31446e-05
1.19361e-05
1.92912e-06
-1.10155e-05
-1.5928e-05
-6.89333e-06
-2.29147e-07
-7.4079e-07
-1.50451e-06
6.42175e-06
4.47411e-06
5.52834e-06
-7.95076e-06
-1.28851e-05
-3.15203e-06
-2.00618e-07
3.4005e-07
3.47226e-06
7.78625e-06
9.38915e-06
7.34331e-06
1.41699e-06
-5.13191e-06
-7.74279e-06
-2.84707e-06
1.06724e-05
1.51531e-05
2.24325e-06
1.76307e-05
1.24267e-05
-1.55224e-05
-8.2589e-06
1.40938e-06
3.45935e-06
2.55021e-06
1.07807e-06
-9.99204e-07
-3.85772e-06
-4.12334e-06
-5.20473e-07
5.15187e-06
1.09032e-05
8.06675e-06
-2.16153e-06
-5.684e-06
-2.10814e-06
3.38846e-07
-5.53185e-08
-1.4535e-06
-5.05183e-07
6.74937e-06
3.01033e-06
-6.3507e-07
-2.9251e-06
-3.24522e-06
-1.57222e-06
-4.74682e-07
8.11552e-07
1.7965e-06
1.83204e-06
1.49469e-06
4.07018e-07
-1.12113e-06
-2.60777e-06
-3.10911e-06
6.09076e-07
7.442e-06
6.68311e-06
8.86548e-09
2.38718e-06
-6.34194e-06
-8.29721e-06
-1.18117e-06
1.05061e-06
1.44405e-06
9.46902e-07
3.72224e-07
-8.30946e-07
-2.16103e-06
-1.78304e-06
2.71762e-07
3.17651e-06
3.09687e-06
5.03887e-07
-4.23284e-07
1.7169e-08
2.8907e-07
-1.84936e-08
-8.2939e-08
-1.30639e-06
1.06468e-06
9.16813e-07
-5.25747e-07
-9.91414e-07
-1.31366e-06
-7.76244e-07
-2.88406e-07
1.12244e-08
1.34347e-07
9.52415e-08
3.59755e-08
-9.17751e-09
-3.75194e-08
-1.49132e-07
-7.13278e-07
-6.45985e-07
7.59733e-07
1.90278e-06
-8.20413e-07
-2.33982e-07
-1.94356e-06
-4.66063e-06
-1.08031e-06
3.49051e-07
9.1579e-07
8.61798e-07
4.04486e-07
-3.70407e-08
-4.52217e-07
-6.67443e-07
-3.20393e-07
2.71754e-07
2.04513e-07
-3.2409e-08
4.84133e-08
1.22797e-07
1.34988e-07
5.71981e-09
1.81133e-08
-3.13071e-07
8.49967e-08
7.09411e-08
-2.2628e-07
-4.25738e-07
-4.59865e-07
-2.92339e-07
-6.36503e-08
4.78389e-08
4.52517e-08
8.4874e-09
5.09066e-09
-9.79655e-10
6.4564e-10
7.2027e-09
-2.68963e-08
-7.24076e-08