/*--------------------------------*- C++ -*----------------------------------*\
| =========                 |                                                 |
| \\      /  F ield         | OpenFOAM: The Open Source CFD Toolbox           |
|  \\    /   O peration     | Version:  5.0                                   |
|   \\  /    A nd           | Web:      www.OpenFOAM.org                      |
|    \\/     M anipulation  |                                                 |
\*---------------------------------------------------------------------------*/
FoamFile
{
    version     2.0;
    format      ascii;
    class       volScalarField;
    location    "50.4676134421789371";
    object      Dvt;
}
// * * * * * * * * * * * * * * * * * * * * * * * * * * * * * * * * * * * * * //

dimensions      [0 1 -2 1 0 0 0];

internalField   nonuniform List<scalar> 
60000
(
0.00111402
0.00101033
0.000434384
-0.00014396
-0.000331256
-0.000131432
2.29128e-05
5.19132e-05
-2.00594e-05
0.000209873
0.000593243
0.000741831
0.00031143
-8.81713e-05
-8.84313e-05
-9.59803e-05
-0.000441778
-0.000783608
-0.00057172
0.000102674
0.000417309
0.000474284
0.0002004
-0.00098344
-0.00287876
-0.00401246
-0.00311147
-0.000824762
0.000945044
0.00101486
0.000373257
0.00037806
0.000901306
0.00126704
0.00118909
0.000170457
-0.000271021
-1.54937e-05
0.000458433
0.000878944
-0.000231837
-0.000239093
-8.53527e-05
7.93628e-05
0.000149662
7.97316e-05
3.7106e-07
-3.43681e-05
1.58625e-05
-3.75089e-05
-0.000118141
-0.0001783
-0.00011716
2.87947e-05
0.000131921
0.00022579
0.000289438
0.000267357
3.5137e-05
-0.0002511
-0.000379357
-0.000270711
-4.30557e-05
0.000244569
0.000500115
0.000618339
0.000479668
0.00019326
-3.56382e-05
-9.13151e-05
-1.89375e-05
4.84622e-05
2.70308e-05
-4.94222e-05
-0.000143222
-0.000125486
6.56026e-05
0.000138072
5.97679e-05
-0.000100469
-0.000415814
-0.000694315
-0.000352892
0.000105266
0.0003104
0.000271422
0.000116744
-5.45526e-05
1.52039e-05
8.01527e-05
-0.000124905
-0.000480745
-0.000566875
-0.000152563
0.000334758
0.000661931
0.000903621
0.000900647
0.000221999
-0.00109951
-0.0019855
-0.00156905
-0.000278232
0.00126499
0.00227815
0.00230686
0.00129914
-0.000107137
-0.00116918
-0.00139745
-0.000802708
3.14706e-05
0.000400741
0.000184077
-0.000291801
-0.000624225
-0.000154401
0.000571302
0.000686381
0.000250405
-7.1839e-05
-0.000257528
-0.000187534
-3.96359e-06
7.0495e-05
7.91165e-05
5.66129e-05
7.12038e-06
-7.46927e-06
4.95756e-05
-8.07746e-06
-0.000148079
-0.00023532
-0.00012167
7.93251e-05
0.000181843
0.000222588
0.000181347
4.61737e-05
-0.000290996
-0.000615358
-0.000567324
-0.000118903
0.000453103
0.000727106
0.000607334
0.00024175
-0.000204967
-0.000588909
-0.000704645
-0.000517299
-0.000214749
2.80618e-05
8.10123e-05
-4.03382e-05
-0.000194633
-0.000145593
9.44684e-05
0.000237613
0.000165924
1.77155e-05
-3.1288e-05
-4.26029e-05
-1.37408e-05
5.09748e-06
6.51726e-06
5.75723e-06
5.95372e-06
1.83222e-06
8.01079e-06
4.50063e-06
-1.76092e-05
-3.55483e-05
-3.06082e-05
4.26616e-07
2.21818e-05
3.35778e-05
3.2679e-05
1.73451e-05
-2.58039e-05
-7.35483e-05
-9.47284e-05
-3.50566e-05
6.7024e-05
0.000100077
7.04562e-05
4.02454e-05
1.26082e-05
-4.26149e-05
-9.7748e-05
-9.99943e-05
-6.57126e-05
-2.45662e-05
6.39045e-06
1.21727e-05
-1.46778e-05
-2.77227e-05
-3.04576e-06
3.25705e-05
4.53898e-05
4.54375e-06
-2.82147e-07
1.32823e-07
1.61565e-06
1.55039e-06
8.46175e-07
-7.84982e-08
1.04974e-07
2.02009e-06
2.70189e-06
1.57591e-06
-1.34847e-06
2.55709e-06
1.01632e-05
5.50187e-06
-6.82896e-06
-5.01086e-06
9.21551e-06
9.24276e-06
-2.98012e-06
-7.48103e-06
7.40451e-06
6.6319e-06
2.99131e-07
-8.94274e-06
-6.02151e-06
-3.22712e-06
4.89545e-07
2.05004e-06
-5.87625e-06
-1.07941e-05
-4.26012e-06
8.00768e-07
4.87827e-07
2.70562e-07
2.09464e-06
-4.73041e-07
1.3249e-07
3.08714e-07
4.27532e-06
-1.08722e-06
-2.00241e-06
-1.99468e-07
1.69928e-06
1.55132e-06
1.30061e-06
9.87176e-07
-1.78281e-07
9.51095e-07
2.02121e-06
6.85491e-07
-4.11666e-07
1.56162e-06
6.91361e-06
5.75808e-06
-5.64766e-06
-1.03548e-05
5.07249e-07
4.7185e-06
-4.57113e-06
-6.95447e-06
1.30512e-05
1.33119e-05
-3.62246e-06
-9.81203e-06
-3.96889e-06
-8.48524e-07
-9.67072e-07
-7.74322e-08
1.83303e-06
6.97439e-07
-2.03613e-07
4.70009e-06
9.12288e-06
4.5121e-06
7.5143e-07
1.02973e-06
1.4616e-06
1.56476e-06
-9.6364e-07
-6.52379e-07
-1.13592e-06
-1.09755e-06
-1.5473e-07
1.19212e-07
3.18483e-07
5.33057e-07
4.10926e-07
6.73947e-07
1.3046e-06
6.20322e-07
-2.77017e-07
1.48054e-07
1.9554e-06
1.7747e-06
-2.48626e-06
-5.98837e-06
-3.30692e-06
3.22962e-06
-5.84614e-06
-8.98905e-06
7.97222e-06
9.73047e-06
-2.47158e-06
-5.50792e-06
-1.50992e-06
1.39722e-07
4.86632e-08
-1.72388e-07
-6.6664e-08
1.35127e-06
9.60262e-07
1.23089e-07
2.05975e-06
3.64811e-06
1.62405e-06
6.66915e-07
6.1311e-07
1.07203e-06
4.91257e-07
4.50052e-09
-3.09498e-07
-4.43113e-07
-2.11533e-07
-4.89893e-08
5.29172e-08
3.75687e-08
8.53662e-08
2.4468e-07
4.97448e-07
3.26437e-07
-1.65835e-07
-5.65286e-08
4.23995e-07
1.34393e-07
-7.01025e-07
-1.52709e-06
-2.46746e-06
9.03665e-07
-2.03981e-06
-8.23448e-06
4.03973e-06
4.98904e-06
-2.14806e-06
-1.93551e-06
-1.645e-07
8.09855e-08
-1.94563e-08
3.99935e-09
-9.01109e-08
-3.03502e-08
3.88949e-07
2.99731e-07
7.72352e-10
3.33098e-07
6.29197e-07
4.29808e-07
2.93132e-07
2.93429e-07
3.29239e-07
5.32593e-08
-3.32413e-08
-1.145e-07
-7.50389e-08
-1.49044e-08
2.52652e-08
1.72678e-08
1.18913e-09
2.52619e-08
9.03865e-08
4.08417e-08
-1.50628e-07
4.23352e-09
2.94723e-08
-1.5122e-07
-1.40051e-07
-2.30551e-08
-5.35901e-07
-1.24858e-07
4.60587e-07
-3.04221e-06
1.44997e-06
2.54098e-06
-1.23539e-06
-3.81826e-07
9.67926e-08
4.82976e-08
2.03076e-08
-2.55839e-09
8.24591e-09
-2.67449e-08
-1.48173e-08
5.1999e-08
4.50336e-08
-3.15311e-10
2.96789e-08
7.86069e-08
7.77323e-08
6.04436e-08
8.01766e-08
1.62909e-08
6.47781e-09
-1.91457e-08
-1.38033e-08
-9.3593e-09
1.90864e-09
3.09403e-09
-1.23286e-10
-3.03359e-09
1.40108e-08
5.79141e-09
-6.07414e-08
1.07929e-08
-1.02622e-08
-6.86076e-08
-3.02401e-08
1.99717e-08
-4.72013e-08
-1.60262e-07
3.48395e-07
6.97466e-08
3.19729e-07
1.36074e-06
-5.11398e-08
4.20386e-08
6.00399e-08
2.14352e-08
2.78846e-09
-7.05806e-10
7.40646e-10
1.21391e-09
-1.51796e-09
-6.99617e-09
1.35402e-09
3.0945e-09
1.10962e-11
1.88258e-10
5.49364e-09
8.54128e-09
1.11378e-08
3.7225e-10
3.25786e-11
-4.08999e-11
8.15794e-11
5.75808e-10
1.48229e-10
1.27504e-10
4.66616e-11
-8.38139e-11
1.92915e-10
4.08229e-09
-8.46618e-09
-6.65452e-10
6.1769e-09
-2.8791e-09
2.13431e-09
-3.52266e-09
-5.22789e-09
-7.89018e-08
4.39418e-08
3.2995e-07
8.0559e-08
4.33466e-07
2.33847e-07
7.22098e-08
2.68435e-08
1.22548e-08
1.98206e-10
-3.962e-12
-5.88677e-11
8.54409e-11
6.19426e-11
-1.67769e-11
-3.42205e-11
2.25759e-12
6.57954e-12
-5.52517e-14
-1.07803e-10
9.91835e-12
-1.20417e-10
4.03713e-11
1.78375e-10
2.52456e-10
9.6834e-11
8.87684e-12
6.76907e-13
-4.18222e-13
3.51654e-12
-5.88605e-13
-5.65663e-11
7.24764e-11
-3.70079e-09
-6.94963e-10
6.90181e-09
4.48091e-09
5.43829e-09
4.54935e-10
8.2306e-10
-1.62826e-08
-9.9644e-09
1.07632e-07
5.34791e-08
4.16542e-08
1.04525e-07
4.44683e-08
1.60972e-08
2.54386e-10
2.35855e-12
1.79464e-14
3.64513e-13
-3.45166e-13
-2.95894e-13
8.40689e-14
1.4003e-13
1.58789e-14
-2.56114e-14
2.35326e-13
-1.05896e-11
-2.44657e-12
-3.10297e-12
-2.51103e-13
1.0571e-12
4.97994e-12
1.61788e-12
1.12773e-13
3.1406e-15
-3.16978e-16
1.96657e-14
-6.19404e-13
1.06817e-11
-1.24556e-10
-1.74087e-10
-7.07697e-10
1.3541e-09
5.79991e-10
6.58385e-11
-6.49667e-11
2.6556e-10
-3.26715e-10
-6.89465e-09
1.3653e-08
1.73633e-08
-5.60935e-09
1.47083e-08
1.55926e-08
4.01777e-10
2.19385e-12
-2.18224e-13
-1.08936e-14
-1.43942e-15
4.2998e-16
4.35143e-16
-1.38576e-16
-2.67272e-16
-1.3498e-16
-9.05192e-19
4.15734e-16
-2.13702e-14
-2.86656e-14
5.34279e-14
-6.12115e-16
9.19222e-15
6.28636e-14
1.52475e-14
6.50494e-16
9.57783e-18
-8.22968e-18
5.44731e-17
5.18952e-16
-1.20542e-14
-2.21299e-13
3.37296e-12
6.59973e-11
1.19907e-10
9.54722e-12
9.32133e-14
5.29207e-14
8.97672e-12
3.30178e-12
1.8573e-11
1.06188e-11
3.18154e-11
-1.18837e-10
2.21516e-10
3.7711e-11
4.27509e-13
-3.13816e-15
9.85603e-16
5.51212e-17
2.26232e-18
1.34162e-19
8.70279e-19
-5.41972e-20
-6.40418e-19
4.36219e-19
9.27015e-19
-9.09126e-19
-1.54066e-17
-1.61925e-16
6.54251e-16
5.61945e-18
4.41318e-17
4.07697e-16
7.62682e-17
1.59026e-18
-5.58339e-20
-4.27651e-20
-4.95555e-19
5.90354e-18
-2.34697e-17
-4.00535e-16
2.04126e-14
-3.18911e-14
4.44227e-13
2.91092e-14
-7.37198e-15
-8.67089e-16
9.97497e-16
1.32945e-13
-2.27276e-13
-2.43977e-13
3.42838e-15
-8.43089e-14
1.08758e-13
-2.78824e-14
-5.96573e-15
-2.8525e-16
-7.1343e-18
-4.01008e-22
2.12918e-20
-5.61703e-21
-6.50307e-22
1.21602e-19
-5.97e-20
1.91885e-20
2.69058e-19
6.41074e-19
-1.22666e-19
1.05089e-20
9.41934e-19
-2.04062e-19
6.14012e-20
1.17826e-18
4.31685e-19
-3.5561e-20
3.37516e-21
1.02146e-19
-1.45117e-19
8.05101e-20
-5.19547e-20
2.44968e-19
3.64224e-17
-1.2968e-15
-5.91293e-15
-1.18678e-15
-7.37471e-17
3.9123e-18
2.31765e-17
-7.24885e-16
9.25758e-16
2.55408e-16
4.72858e-17
-1.80297e-15
-3.56244e-15
-5.09347e-16
-2.41826e-18
2.31343e-18
4.38216e-20
-1.68137e-19
-1.15096e-19
-2.58264e-19
6.11857e-20
-1.60058e-19
-1.01019e-19
3.55116e-20
-3.34713e-20
3.657e-21
1.29882e-19
1.47265e-19
2.68451e-19
2.03176e-19
-1.04576e-19
1.09702e-19
1.37998e-19
-2.58128e-20
-2.93049e-20
-9.45201e-20
-8.92564e-20
-3.91081e-20
-1.90143e-19
1.13208e-19
-4.08526e-20
-3.15658e-18
-7.39115e-17
-1.31005e-17
9.12492e-19
-1.25829e-19
8.07397e-20
1.25266e-18
-3.19723e-19
9.94692e-19
5.60063e-19
-1.0821e-17
-1.539e-17
1.3716e-18
3.43312e-19
1.98902e-19
2.85071e-20
-3.46759e-19
3.8672e-20
-2.12678e-19
1.11771e-19
3.61244e-19
4.12655e-19
3.85834e-20
2.10191e-19
1.12102e-19
2.36785e-19
-2.79099e-20
-1.36695e-19
1.5847e-19
-3.07657e-21
1.59764e-19
1.69303e-19
4.94575e-21
5.90536e-20
-2.79021e-19
3.09286e-19
-3.90204e-20
-1.5415e-19
1.42928e-19
1.68155e-20
-2.62076e-19
-9.08244e-19
-3.53709e-20
-2.03016e-19
2.87656e-19
-7.70566e-20
1.108e-19
-1.60661e-20
-4.52416e-22
-4.84569e-20
-1.51214e-19
2.24627e-20
2.7801e-19
-1.53354e-19
1.917e-20
-2.47991e-20
6.34441e-20
8.33152e-20
1.15931e-20
2.11594e-21
3.46924e-19
1.48265e-19
-2.25329e-19
-1.37861e-21
1.60739e-19
-1.76995e-19
3.74523e-20
-9.34194e-20
1.31204e-21
-6.8421e-20
-2.15083e-20
-7.51521e-20
-1.83272e-19
-1.05996e-19
-1.28107e-19
-2.82838e-19
8.61814e-20
2.09503e-20
-2.08297e-19
-7.0584e-20
-1.17944e-19
2.11809e-19
3.34032e-20
1.12209e-19
1.04456e-19
-1.09786e-19
-2.07481e-19
1.93254e-19
1.72126e-19
-7.07376e-20
-1.55344e-19
-1.33681e-19
-2.78357e-19
3.30292e-20
1.97752e-20
4.16382e-21
-6.21303e-20
-2.17576e-19
2.14832e-20
-5.85621e-20
-3.48272e-19
-4.78381e-19
7.47227e-19
-1.02928e-20
3.81623e-19
1.79044e-19
-1.82253e-20
1.53731e-19
-2.63465e-20
7.45288e-21
-7.49975e-20
-1.0034e-19
-2.2297e-19
4.55103e-20
-1.89888e-19
1.56035e-19
8.47902e-20
-6.26198e-20
2.21831e-19
9.6192e-20
3.14959e-19
1.01821e-19
-2.47721e-19
-1.32014e-19
-1.36416e-21
-2.01126e-19
-7.49154e-20
2.24148e-20
-2.73507e-19
8.0231e-20
1.04763e-19
-9.5747e-21
-3.47057e-20
-6.13252e-20
-7.6988e-20
1.54446e-20
1.03351e-20
1.50045e-20
9.18662e-20
1.32416e-20
-8.82107e-20
7.61752e-20
1.51086e-19
-1.13279e-19
-1.41209e-19
5.53451e-20
1.35444e-19
-5.36187e-20
-4.60643e-20
-1.56325e-19
-9.13022e-21
-8.67668e-20
8.01982e-21
-1.45478e-19
3.49592e-20
2.06255e-19
-1.56032e-19
1.22496e-19
6.05478e-20
-1.42343e-19
-9.3169e-20
-9.55429e-20
1.77748e-19
-1.48568e-19
4.21955e-20
-2.49463e-19
-2.58432e-19
3.61957e-19
2.30606e-20
-1.30661e-19
8.4989e-20
-1.21395e-19
-3.46764e-19
7.64421e-20
1.89029e-20
8.94277e-20
-2.09318e-20
3.09735e-19
-1.9133e-20
2.4063e-20
-3.1722e-19
-7.6115e-20
1.36622e-20
1.0746e-19
-1.01934e-19
-1.80234e-19
1.80505e-19
-9.39211e-20
8.46447e-20
-2.17533e-20
-1.3855e-20
-1.68302e-19
3.5575e-19
-9.49434e-20
-2.06924e-20
6.53216e-22
-6.08213e-20
-2.52506e-20
-2.09003e-19
1.11037e-19
-3.74689e-20
2.58952e-20
-3.22671e-20
-6.29413e-20
3.2327e-20
4.14828e-20
-4.07071e-20
-1.37658e-20
2.90699e-20
9.62537e-20
1.77367e-19
1.05211e-19
3.78023e-20
-1.9231e-20
2.51001e-20
7.6916e-20
-3.96058e-21
-1.63437e-19
2.37949e-19
6.87478e-20
-2.72162e-19
-1.6997e-19
-1.40174e-19
-8.76402e-20
-8.70024e-20
2.75044e-19
6.34591e-20
-3.08441e-21
-5.81268e-20
1.33127e-19
9.12553e-20
-1.19467e-19
4.56671e-21
-8.70808e-20
-3.48611e-19
1.05504e-19
1.57711e-19
9.21043e-20
8.0132e-20
6.76666e-20
-3.22333e-20
-3.95542e-20
-4.94839e-20
-8.918e-20
-3.04773e-20
-7.59747e-20
3.95989e-20
-2.93565e-20
-6.65335e-20
1.7346e-19
5.3994e-20
-9.99145e-20
-5.84499e-21
1.78332e-19
-1.69672e-20
-4.01583e-20
-3.18881e-20
4.78084e-20
5.98546e-20
8.24398e-21
-1.01574e-19
2.23028e-19
1.44877e-19
1.12479e-19
-6.16805e-20
-4.35658e-20
6.46158e-21
-1.68299e-20
-2.75078e-20
-1.15176e-19
7.88229e-21
-4.80527e-20
-2.44695e-19
7.10943e-20
2.30759e-20
-3.45208e-20
-1.15505e-19
1.17679e-19
-1.02907e-20
2.23542e-19
1.6915e-19
-1.14734e-21
8.04391e-20
8.18725e-21
2.1013e-19
-6.56666e-20
9.26664e-20
1.55109e-20
3.13429e-20
3.98827e-20
4.69228e-20
-1.43666e-19
5.64758e-20
-1.40951e-19
2.5216e-20
1.7811e-20
-3.61039e-20
-2.53884e-20
8.91406e-20
3.40909e-20
5.01924e-20
4.55303e-20
1.84736e-19
-1.22132e-19
-9.61533e-20
-8.0711e-20
-4.40808e-20
-1.7472e-20
0.000238697
0.000364861
0.000301829
7.69617e-06
-0.00025508
-0.000356424
-0.000408154
-0.000454308
-0.000370106
-0.000283402
-0.000241391
-0.000440681
-0.000749152
-0.000933423
-0.00112722
-0.00150437
-0.00185509
-0.00179942
-0.00118472
-0.000196408
0.000226104
-4.06257e-06
-5.01105e-05
0.000397348
0.000323191
0.000297667
0.000737697
0.0011745
0.000640109
-0.000557524
-0.00142332
-0.00141415
-0.000825097
0.000185089
0.000570816
-0.000430159
-0.000859415
-0.000215034
0.00014322
0.00017825
-0.000169288
-0.000151121
-5.05091e-05
8.37148e-05
0.000202914
0.000261749
0.000185774
5.76145e-05
-8.30662e-05
-0.000110702
-8.78849e-05
1.84129e-05
0.000156385
0.000285836
0.000418972
0.000561482
0.000664617
0.000663992
0.000456433
7.13083e-05
-0.000201172
-0.000222239
-0.000105811
2.10957e-05
0.000145193
0.000172555
8.53986e-05
8.28871e-06
1.75414e-05
9.91675e-05
0.000197124
0.000224321
0.000175348
7.38789e-05
-9.49788e-05
-0.000196068
2.60363e-06
3.77726e-05
-7.07008e-05
-0.000132106
-0.000386497
-0.000412571
-0.00015992
0.000190174
0.000471108
0.00065768
0.000508886
5.13986e-05
-0.000450823
-0.000622282
-0.000504657
-0.000219844
0.000201314
0.000627862
0.001011
0.00133389
0.00154932
0.00159228
0.00107335
-0.000336119
-0.00194216
-0.00224429
-0.00114308
4.07737e-05
0.000934263
0.00118479
0.00065781
-3.56746e-05
-0.000227512
0.00013951
0.000674778
0.000895927
0.000589576
1.71416e-05
-0.000781096
-0.00147283
-0.000995987
2.36912e-05
5.97756e-05
-0.000169207
-0.000104425
-0.00015772
-8.02664e-05
5.63381e-05
0.000128155
0.000161621
0.000146484
2.6833e-05
-0.000118538
-0.000219138
-0.000169519
-0.000100091
9.40037e-06
0.000135344
0.000224751
0.00026042
0.000251441
0.000243424
0.000148686
-0.000243593
-0.000809337
-0.000961127
-0.000550231
-3.60061e-05
0.000330462
0.000406187
0.00018759
-0.000111699
-0.000227488
-0.000127378
2.39464e-05
8.62464e-05
3.68172e-06
-0.000153009
-0.000354072
-0.000513874
-0.000421195
-3.96152e-05
0.000120367
1.97488e-05
-5.54718e-06
-1.99291e-05
-1.71117e-05
2.85036e-06
1.2345e-05
1.45388e-05
1.89034e-05
1.19839e-05
-8.12407e-06
-2.8085e-05
-3.12013e-05
-2.30501e-05
-8.19731e-06
1.06646e-05
2.59696e-05
3.26703e-05
3.07769e-05
3.44497e-05
4.7648e-05
1.02671e-05
-0.000118514
-0.000170551
-0.000108304
-1.67422e-05
5.3383e-05
7.74711e-05
5.48121e-05
3.61418e-06
-3.37099e-05
-3.10456e-05
-1.23347e-05
-3.25548e-06
-8.42264e-06
-2.02267e-05
-4.21445e-05
-7.82937e-05
-7.39271e-05
-2.12561e-05
2.49398e-05
1.78248e-05
5.60063e-08
2.67109e-06
4.54569e-06
1.08801e-06
-3.13428e-06
-2.83836e-06
1.17909e-07
2.71529e-06
1.70973e-07
-1.05035e-06
2.03449e-06
3.18458e-06
3.20507e-06
-8.50977e-08
-3.60085e-06
-2.86297e-06
-1.97739e-06
-4.19805e-06
2.2148e-06
1.38516e-05
-2.14101e-05
-3.43198e-05
2.76055e-06
6.47508e-06
-1.24456e-06
-9.6859e-08
4.61687e-06
4.00008e-06
-6.01203e-07
-1.10607e-06
1.10861e-06
4.79047e-07
-6.77326e-07
-8.94543e-07
-3.85253e-06
-9.22054e-06
-7.15946e-06
1.06482e-06
-3.61314e-07
1.21852e-06
-2.00088e-06
3.046e-07
4.36191e-06
2.19942e-06
-2.2175e-06
-1.97043e-06
-2.03157e-07
2.00185e-07
2.39611e-07
-2.7229e-07
3.07615e-06
7.12362e-06
6.19326e-06
1.24309e-06
-3.70108e-06
-3.70671e-06
-1.44233e-06
-2.25832e-06
-3.26895e-06
4.822e-06
-4.88257e-06
-1.8653e-05
8.06154e-06
9.27295e-06
-4.41649e-06
-5.39596e-06
-1.25441e-06
1.32214e-06
1.31882e-06
5.27286e-07
6.26594e-07
7.41213e-07
1.02647e-06
2.75793e-06
1.79192e-06
-1.62353e-06
-1.68135e-06
4.19249e-06
2.31116e-06
-2.99922e-06
-1.83314e-06
-1.51514e-06
5.85133e-07
7.9309e-07
-9.93234e-07
-8.86817e-07
-1.37047e-09
3.90559e-08
-7.64435e-07
8.13495e-09
2.44172e-07
2.85462e-06
3.61663e-06
1.08244e-06
-1.50855e-06
-1.6649e-06
-2.53864e-07
2.16908e-07
-1.63148e-06
1.91033e-06
3.57494e-07
-1.07276e-05
2.07134e-06
5.47106e-06
-2.04594e-06
-2.52815e-06
-5.08605e-07
3.11034e-07
3.62854e-07
2.92691e-07
2.2607e-07
1.62604e-07
4.33216e-08
1.79851e-07
1.05556e-06
-2.27723e-07
-9.5927e-07
6.99472e-07
3.13344e-06
-3.91865e-07
-3.13527e-07
-1.03284e-06
-7.924e-07
-3.56891e-07
-5.78395e-07
-4.0211e-07
-7.33484e-08
1.26391e-07
-5.32421e-07
-5.06538e-07
2.26491e-08
3.59719e-07
8.16786e-07
2.58878e-07
-3.80589e-07
-4.27352e-07
-1.18037e-07
3.20046e-07
-5.69581e-07
1.03211e-06
1.35566e-06
-4.59829e-06
7.07262e-07
2.45007e-06
-6.97689e-07
-7.62513e-07
-1.33184e-07
7.43834e-08
5.26342e-08
2.10409e-08
1.44924e-09
-9.50482e-10
3.67191e-08
-1.6539e-08
8.21493e-08
9.56595e-08
-2.43903e-07
-1.40547e-07
8.4966e-07
9.0118e-07
2.52939e-07
-2.8092e-07
-6.77297e-07
-5.55254e-07
-3.50709e-07
-1.43033e-07
-4.3104e-08
2.97739e-08
-5.51339e-08
-4.22189e-07
-8.71375e-08
6.02925e-08
4.01784e-08
-4.85919e-09
1.21038e-08
-5.6807e-08
-8.12278e-08
1.3155e-07
-2.01962e-07
3.88874e-07
8.05194e-07
-1.3623e-06
5.53772e-07
9.84814e-07
-2.09528e-07
-1.60405e-07
-1.26965e-08
8.51543e-09
7.71027e-09
5.38354e-09
1.11796e-09
-4.4565e-09
-5.28477e-09
4.11726e-10
-3.91112e-09
6.60714e-09
-1.35552e-09
-1.54217e-08
5.98205e-08
3.70554e-07
1.22566e-07
1.56963e-08
-2.739e-07
-2.79732e-07
-1.21718e-07
-1.62465e-08
1.18078e-09
-1.67686e-08
-1.69535e-11
-5.85824e-08
-1.29032e-07
6.03776e-08
6.44108e-08
1.24711e-08
2.10805e-08
-1.57319e-08
-4.03727e-08
3.16464e-08
-5.38971e-08
8.543e-08
2.55997e-07
-1.55473e-07
2.8315e-07
3.58209e-07
-2.43611e-08
-1.24951e-08
7.76265e-09
5.93996e-09
3.79705e-09
3.39897e-10
2.56033e-10
5.37317e-10
-5.62859e-10
2.66908e-10
-2.50209e-09
3.86209e-10
1.0286e-10
1.56866e-08
-4.43195e-10
4.50216e-08
2.43151e-08
2.505e-08
-4.85029e-08
-6.70823e-08
-1.58787e-08
1.3022e-09
1.75214e-09
-1.18426e-09
-1.69149e-08
1.38268e-08
-2.58598e-08
1.30617e-08
6.03059e-08
1.20959e-08
-3.75473e-09
-3.37093e-09
-7.30278e-09
1.92247e-09
-1.31889e-08
2.51737e-09
3.9604e-08
5.04916e-08
9.73386e-08
8.65137e-08
1.41695e-08
9.05973e-09
8.40323e-09
7.3635e-10
2.50462e-11
-1.52323e-12
-3.1885e-12
3.49378e-11
6.48628e-11
-3.10171e-11
-3.17528e-10
2.1897e-11
-7.33609e-10
1.4643e-09
4.70903e-09
6.80569e-10
3.51924e-10
1.11954e-08
-4.65965e-09
-3.96424e-09
-1.37283e-10
2.14573e-10
3.00097e-11
-1.00641e-10
-8.67853e-10
4.54088e-10
1.13577e-09
-8.51625e-10
7.26505e-09
6.68878e-09
-1.779e-09
-1.36064e-10
5.61854e-11
5.07483e-10
-6.79379e-09
-3.83293e-09
3.83633e-09
3.40679e-08
2.56178e-08
6.54292e-09
1.3269e-08
8.53542e-09
6.34516e-10
1.14807e-11
-6.02424e-14
-2.81778e-15
7.89503e-15
-1.57242e-13
-8.49728e-13
1.62282e-12
-6.37393e-13
-1.10861e-11
-8.66804e-13
7.08396e-12
2.00593e-10
6.32256e-11
-9.32966e-11
-1.2446e-10
-9.62777e-11
2.73692e-12
1.08237e-11
1.65159e-12
4.79395e-13
-1.34572e-12
-2.31236e-11
-4.01046e-11
5.22838e-12
1.48988e-10
8.68866e-10
3.01528e-10
3.79406e-12
4.56381e-12
-4.18129e-12
6.57118e-11
2.46046e-11
-8.40029e-11
1.92369e-10
1.373e-08
1.31997e-09
-8.93523e-11
8.26991e-09
6.36182e-10
7.33075e-12
-6.36345e-13
-3.4803e-14
-2.3508e-16
3.64904e-16
-1.35399e-15
2.30461e-15
-1.65264e-14
3.32797e-14
-8.67069e-15
-1.39128e-15
2.94793e-14
-4.09103e-13
-1.03635e-11
-8.65784e-13
-2.9808e-12
-1.80366e-12
5.71954e-13
8.6819e-14
3.99158e-15
-1.59529e-15
1.66697e-14
-5.22968e-14
4.97761e-14
1.77083e-14
-6.07242e-14
3.3463e-12
2.68778e-12
2.72991e-13
6.78019e-14
6.23378e-14
-4.41466e-13
-1.50185e-13
3.71437e-12
-7.52751e-11
3.94417e-11
-1.65763e-10
6.44722e-11
1.08375e-10
2.84354e-12
-2.79791e-13
-1.95952e-14
-4.80383e-16
7.39161e-19
-2.49244e-18
1.55216e-17
6.55777e-17
3.53356e-17
-1.95393e-16
1.22289e-16
-1.33413e-17
3.92261e-16
-8.02962e-15
1.63819e-14
-1.68098e-15
9.18751e-16
1.38014e-14
5.3876e-15
2.05703e-16
-1.90381e-19
-7.04482e-19
-4.7161e-17
4.91805e-16
2.53562e-16
-1.95873e-17
2.16598e-16
-4.24396e-16
1.44306e-14
3.36599e-15
5.09068e-16
-1.01299e-16
6.53218e-16
1.64037e-15
-2.61331e-14
2.66429e-13
1.54025e-14
-5.27459e-13
-1.24745e-12
-4.29005e-13
-8.06914e-14
-4.68602e-15
-9.91993e-17
-6.68173e-19
9.57537e-21
1.76681e-19
1.397e-19
-7.59418e-19
3.62861e-19
3.96555e-19
-7.19448e-19
-4.89394e-19
5.55113e-18
-5.27287e-17
1.5478e-16
-2.71412e-18
7.92725e-17
1.13433e-16
2.05577e-17
5.16252e-19
-1.37676e-20
7.20366e-20
2.70588e-20
-1.37382e-18
-1.60625e-18
3.2231e-20
5.41391e-18
-1.07794e-16
-4.18696e-17
1.46915e-17
3.90832e-18
-8.92748e-20
-2.51594e-18
1.6781e-17
2.61193e-17
-8.24333e-16
5.22962e-17
-2.12156e-15
-2.45356e-14
-9.1582e-15
-3.49779e-16
4.8748e-17
2.98057e-18
-2.51035e-20
-1.1195e-20
1.31417e-19
-4.00982e-19
5.94779e-19
2.21918e-19
-1.31858e-20
2.91669e-19
-1.83056e-19
1.19562e-19
-5.83286e-19
1.30464e-18
-9.19708e-20
7.48091e-19
5.72431e-19
4.14184e-19
-1.36223e-20
9.10361e-20
-5.0656e-20
4.94206e-20
-5.91058e-20
-2.47593e-21
-4.39821e-20
2.75079e-20
-1.75466e-18
-2.40292e-18
-1.06535e-19
-2.79326e-19
3.37988e-19
-3.56809e-19
-2.04449e-19
2.08161e-19
1.06503e-18
6.7164e-19
-6.11124e-18
-1.43831e-16
7.72566e-18
8.91551e-18
6.0601e-19
2.61227e-20
1.16259e-19
-1.14685e-19
4.98698e-19
-1.14411e-19
1.48841e-19
-5.65441e-21
1.51308e-19
-3.19302e-20
9.71386e-20
-9.3683e-20
7.16681e-20
-2.72819e-20
-1.17885e-20
1.1029e-19
1.38809e-19
4.04937e-19
5.87987e-20
-5.94216e-20
-1.47999e-19
-2.56839e-20
-1.60594e-19
3.34477e-19
7.94565e-20
-1.54893e-19
3.55353e-19
-8.26687e-20
-3.19544e-20
7.84277e-20
-6.0452e-21
1.43535e-21
8.98661e-20
4.76884e-20
2.0244e-19
-1.8072e-19
-6.56426e-20
1.5587e-20
5.86979e-19
-3.14846e-19
1.36589e-19
-1.09296e-19
9.83869e-20
-7.31037e-20
-1.72866e-20
3.34085e-21
5.59766e-19
-6.72682e-19
-5.59432e-20
1.04405e-19
-1.92569e-20
-1.04803e-19
-1.9306e-19
3.35306e-20
8.78184e-20
-1.40963e-19
-2.21856e-19
-6.63207e-20
7.35993e-21
-1.14571e-19
-8.48707e-20
1.17206e-19
-1.07936e-19
-1.79604e-20
-1.10402e-19
2.91411e-19
3.22113e-19
1.51556e-19
4.0657e-19
-7.27235e-21
2.36347e-20
5.86538e-21
1.10161e-19
-3.73901e-21
4.54835e-20
2.68611e-20
-2.34608e-20
6.03809e-20
1.86402e-19
-5.75117e-20
-3.06987e-19
8.72498e-20
-8.15324e-20
3.31285e-20
-1.08256e-19
1.14999e-19
-3.27615e-19
1.21668e-18
5.64457e-19
3.09107e-20
-8.72823e-20
3.09372e-19
-9.7439e-20
7.90641e-20
1.37428e-19
-9.28993e-20
5.82903e-20
-8.12195e-20
-1.39162e-19
-1.94238e-20
-9.35691e-20
8.48505e-20
3.51747e-20
1.69103e-19
-1.53774e-19
4.0749e-19
1.47886e-19
-2.03117e-19
-8.8284e-20
4.62758e-20
-5.82578e-20
-1.20098e-19
1.66521e-19
2.78816e-19
8.67292e-20
-1.9306e-19
3.04778e-19
-2.40302e-19
1.85226e-20
-9.14682e-20
8.64179e-20
4.59624e-20
-5.0726e-20
4.81285e-20
6.68069e-21
-4.67924e-19
-3.38257e-20
3.2392e-20
4.40436e-19
-3.75004e-20
5.03979e-20
-3.16565e-19
5.17333e-20
-3.23552e-19
5.89852e-20
1.16389e-20
-6.31011e-20
-7.92078e-20
8.30649e-20
-7.98478e-20
-1.34578e-19
3.73328e-19
4.90411e-20
-2.37601e-19
4.11407e-20
-1.68327e-20
3.51925e-19
-6.29436e-20
1.35778e-19
-6.71579e-20
-6.19334e-20
1.85591e-19
-3.98944e-20
9.92113e-20
-1.18952e-19
2.05539e-19
-1.18281e-19
2.28639e-19
2.13055e-19
1.20104e-19
6.21809e-20
-7.55672e-20
-1.68674e-20
-6.17053e-20
-2.13541e-20
-2.06001e-19
8.89799e-21
-1.87884e-20
-2.46355e-19
-2.07351e-19
-3.33015e-20
-7.62319e-21
-1.50439e-20
2.5044e-19
7.10824e-20
5.52912e-20
1.82055e-19
2.34489e-20
-2.00854e-19
7.96038e-21
1.6119e-19
-1.21371e-19
-2.42155e-19
-3.18762e-20
2.9624e-20
-9.25032e-20
1.94421e-19
-7.18784e-20
1.102e-19
2.80849e-19
3.9349e-20
-4.21142e-20
-5.17716e-20
4.32268e-20
1.47295e-19
-2.93628e-20
1.61596e-19
1.685e-21
-1.33791e-19
9.8782e-20
-1.37923e-20
8.01838e-20
-1.3773e-20
2.08386e-20
7.12523e-20
-1.6704e-19
-2.45103e-19
-1.6786e-19
-6.074e-20
-8.16829e-20
3.76674e-19
2.65679e-21
-5.82481e-21
-4.82145e-20
-2.86097e-20
-5.19525e-20
-6.91324e-20
-6.56611e-20
-1.45872e-19
-1.43316e-19
-1.6232e-19
-2.26003e-20
2.96256e-20
1.50457e-21
1.12908e-20
1.94583e-19
1.8697e-19
-6.94432e-20
-6.83443e-21
-1.18699e-19
4.53914e-20
7.9747e-20
4.68646e-21
4.71245e-20
9.39057e-20
-9.75238e-20
5.39971e-21
1.37067e-20
1.5708e-19
-1.08843e-19
-5.21756e-20
3.67944e-21
-3.64356e-20
-6.34653e-20
3.8439e-20
-2.3324e-20
-2.15024e-19
-2.22367e-19
2.56816e-20
2.00877e-20
-3.4592e-20
4.33291e-20
7.37177e-20
-7.7205e-21
-1.34212e-19
3.80193e-20
3.21552e-20
7.53261e-20
-1.23443e-19
-1.56683e-19
-1.3047e-19
6.72843e-20
4.83022e-20
-3.37422e-20
-7.58561e-20
1.84751e-19
-2.4749e-19
-1.52086e-19
6.16974e-20
1.80987e-19
9.82687e-20
-9.19925e-20
5.37574e-20
-9.36703e-21
-3.37243e-20
1.84713e-19
-1.08651e-19
-7.70831e-20
-9.906e-21
-3.17041e-20
-4.52107e-20
-1.99629e-20
-6.94742e-21
-8.42923e-20
2.22878e-20
6.29379e-20
-8.0858e-21
-1.13791e-19
2.97255e-19
2.23583e-20
-7.24255e-20
7.07459e-20
1.47015e-19
-7.73829e-20
0.000601437
0.000723924
0.000194287
-0.000265393
-0.000387963
-0.000277197
-0.000116962
0.000146542
0.000194199
-0.000110487
-0.000452497
-0.000564982
-0.000497967
-0.000480354
-0.00088505
-0.00128226
-0.00158816
-0.00192842
-0.00223973
-0.00132021
0.000816565
0.00121347
0.000517879
0.000836755
0.00139539
0.00159714
0.00131729
0.00069525
-0.000221845
-0.00110152
-0.00162199
-0.00145894
-0.000754739
-9.57302e-06
0.000163063
-0.000395062
-0.000767206
-0.000658526
-0.000488387
-4.40893e-05
-0.000311926
-0.000280049
-7.59147e-05
5.27904e-05
6.81361e-05
3.86257e-05
8.36813e-06
-3.24005e-05
-6.91996e-05
-6.24337e-05
-1.11917e-05
5.28865e-05
0.000109282
0.000164456
0.000245695
0.000316827
0.000354033
0.000390751
0.000424758
0.000298221
-5.98531e-05
-0.000294194
-0.000219776
-0.000110712
-0.000118571
-0.000123011
-8.77124e-05
-2.52071e-05
6.19081e-05
0.000155738
0.000212138
0.000199549
0.000130484
3.5501e-05
-5.60783e-05
-5.13461e-05
0.000105714
0.000178394
5.85503e-05
-0.00016772
-0.000631657
-0.000690645
-0.000278811
8.83957e-05
0.000186348
0.000153907
9.87495e-05
4.49862e-05
-0.000113601
-0.000254734
-0.000254436
2.4615e-05
0.000350167
0.000648751
0.000910453
0.00106716
0.00105247
0.00101711
0.00113206
0.00089086
-0.000444918
-0.00190877
-0.00159995
-0.000315928
2.81881e-05
-3.07643e-05
-9.91935e-05
9.76493e-06
0.000364097
0.000787071
0.00102227
0.000856364
0.000320061
-0.000304885
-0.000793085
-0.000983067
-0.000484449
0.000280431
0.000286819
-0.000275338
-0.000170473
-0.000216584
-0.00010378
4.58419e-05
9.22092e-05
8.70231e-05
7.1182e-05
6.94629e-05
3.25948e-05
-3.00285e-05
-8.18246e-05
-8.41713e-06
0.000118053
0.000214017
0.000260521
0.000253898
0.000197402
0.000154962
0.000161509
0.000102869
-0.000218242
-0.000740293
-0.000699918
-0.000175824
6.55993e-05
7.65911e-05
2.12473e-05
2.18673e-05
0.000116831
0.00022259
0.000267722
0.000203317
2.13506e-05
-0.000203608
-0.000358709
-0.000393832
-0.000271082
1.58947e-05
0.000176745
7.95848e-06
-1.55378e-05
-2.7706e-05
-2.28431e-05
1.21638e-06
1.24836e-05
1.2679e-05
1.00885e-05
1.14339e-05
1.28171e-05
1.99635e-06
-1.53269e-05
-1.18301e-05
1.37217e-05
3.45191e-05
4.09345e-05
3.81969e-05
2.79463e-05
2.49452e-05
3.29249e-05
3.7383e-05
-3.89006e-06
-0.000113879
-0.000141853
-6.42627e-05
4.47607e-06
2.28392e-05
8.81574e-06
-4.18909e-06
5.9856e-06
2.37007e-05
3.31727e-05
3.24729e-05
1.4602e-05
-1.73976e-05
-4.76608e-05
-6.19528e-05
-5.33087e-05
-1.33986e-05
3.23762e-05
2.50222e-05
-5.25788e-07
3.09362e-06
3.16789e-06
1.0086e-06
3.70377e-07
5.12059e-08
-3.72703e-07
1.38684e-07
2.12397e-06
2.48108e-06
2.96416e-07
-3.68616e-07
7.70296e-08
-1.69741e-07
-1.1609e-06
-1.50224e-06
-1.0106e-06
-1.41944e-06
-1.61626e-06
6.89601e-06
6.22457e-06
-2.04092e-05
-1.76551e-05
6.60193e-08
5.46754e-07
2.61284e-06
2.8178e-06
1.043e-06
1.18227e-06
1.14099e-06
-7.21964e-09
5.23188e-07
2.29244e-07
-2.48354e-06
-4.90996e-06
-4.5665e-06
-1.72005e-06
-1.224e-06
1.96441e-06
1.32952e-05
1.78538e-06
2.11346e-06
4.93907e-06
3.05512e-06
2.89387e-07
-1.02851e-06
-1.10221e-06
-5.35314e-07
-6.92375e-09
5.3312e-07
1.1807e-07
1.7025e-07
-8.68123e-08
-1.16291e-06
-1.25016e-06
-6.09387e-07
-8.69087e-07
-8.25423e-07
-2.16427e-06
-1.80372e-06
2.13168e-06
-6.79178e-06
-5.54314e-06
9.73119e-06
3.6704e-06
-1.78968e-06
-9.58412e-07
-1.90469e-07
1.07997e-07
-7.21876e-08
-2.81588e-07
3.09661e-08
1.45e-07
-7.02573e-07
-1.40771e-06
-3.78384e-07
2.70345e-06
4.1198e-06
4.42116e-07
3.56382e-06
1.8996e-06
-7.63087e-07
1.75839e-06
1.81349e-06
7.93144e-07
-3.11696e-08
-2.48952e-07
2.33485e-07
3.19105e-07
-1.09559e-07
-6.74545e-07
-1.16446e-06
-6.20606e-07
5.80543e-07
1.97431e-06
1.55494e-06
5.76465e-08
-2.86108e-07
2.07922e-07
-1.46398e-06
5.39568e-07
-1.92594e-06
-3.74348e-06
3.10986e-06
2.39668e-06
-1.23147e-06
-1.25034e-06
-5.78855e-07
-3.28448e-07
-2.35179e-07
-2.25391e-07
-9.40318e-08
1.86422e-08
-2.10715e-07
-6.31227e-07
-7.38969e-07
3.57867e-07
1.75045e-06
1.42145e-06
1.57684e-07
5.5259e-07
-9.06731e-07
-2.98264e-07
2.2417e-07
1.81145e-07
1.6914e-07
1.25187e-07
2.59241e-07
3.32936e-07
7.03397e-08
-2.80824e-07
-7.48347e-07
-6.06489e-07
5.85907e-07
1.42199e-06
9.58053e-07
1.41478e-07
-2.37408e-07
1.11559e-07
-2.60168e-07
3.03932e-07
-5.41883e-08
-1.42425e-06
6.24805e-07
7.75907e-07
-5.53089e-07
-7.2121e-07
-3.12451e-07
-4.48526e-08
-4.17016e-09
-1.42934e-08
-6.49651e-09
-3.89574e-09
-2.64545e-08
-5.47187e-08
-2.64248e-07
-1.41472e-07
2.43092e-07
4.25356e-07
-1.2193e-07
-4.39244e-08
-4.24783e-07
-8.8663e-07