/*--------------------------------*- C++ -*----------------------------------*\
| =========                 |                                                 |
| \\      /  F ield         | OpenFOAM: The Open Source CFD Toolbox           |
|  \\    /   O peration     | Version:  5.0                                   |
|   \\  /    A nd           | Web:      www.OpenFOAM.org                      |
|    \\/     M anipulation  |                                                 |
\*---------------------------------------------------------------------------*/
FoamFile
{
    version     2.0;
    format      ascii;
    class       volScalarField;
    location    "50.4676134421789371";
    object      Dwt;
}
// * * * * * * * * * * * * * * * * * * * * * * * * * * * * * * * * * * * * * //

dimensions      [0 1 -2 1 0 0 0];

internalField   nonuniform List<scalar> 
60000
(
0.0104643
0.00722525
0.00294916
-0.000907492
-0.00397323
-0.00560828
-0.00517412
-0.00221728
0.00274653
0.00761211
0.00998827
0.00846128
0.00415187
-0.000148409
-0.00379655
-0.00750605
-0.0108281
-0.0133162
-0.01595
-0.0153663
-0.00722917
0.00572995
0.0162664
0.0203172
0.0181943
0.0138205
0.0119049
0.0136019
0.0133188
0.00480519
-0.00769393
-0.0162343
-0.0201207
-0.0228555
-0.0243614
-0.0182833
-0.00442071
0.00631516
0.0109917
0.0118473
-0.000736103
-0.000268114
0.000229948
0.000360288
0.000361825
0.000593695
0.000581405
8.65735e-05
-0.000663282
-0.00122647
-0.00130022
-0.000999515
-0.000447179
0.000201392
0.000703986
0.000972147
0.000970943
0.000724302
0.000412834
2.79534e-05
-0.000625155
-0.00151808
-0.00193715
-0.00150704
-0.000706253
0.000142372
0.00075583
0.000934311
0.000678197
0.00024184
-9.36336e-06
2.99214e-05
0.000161569
0.000189633
0.000156092
0.000246715
0.000300726
-6.08597e-05
-0.000610545
-0.00088984
-0.00102777
-0.00105192
-0.000234062
0.000154991
-0.000432368
-0.000337096
0.000615208
0.00101937
0.000605961
-0.000509992
-0.0013868
-0.00156345
-0.0011525
-0.000330026
0.000232884
0.000265376
0.000133896
-0.000129549
-0.000342756
-0.000475671
-0.00109765
-0.0032477
-0.00550144
-0.00480577
-0.00196796
0.00141723
0.00418228
0.00578801
0.00564398
0.00317261
-0.000320215
-0.00230191
-0.00234227
-0.00182788
-0.00146527
-0.000681053
0.00123622
0.00240116
0.00166623
9.63229e-05
-0.000329949
-0.000703117
-0.000520384
-0.000117529
-7.3491e-05
-0.000207019
5.9595e-05
0.000406646
0.000460827
0.000164102
-0.000291963
-0.000535543
-0.000485588
-0.000185661
0.000122267
0.000242534
0.000222314
0.000118418
7.84749e-05
0.000238478
0.000203085
-0.000293389
-0.00116004
-0.00131719
-0.00069384
0.000121936
0.000708484
0.00104041
0.00117798
0.000970511
0.000359941
-0.000303254
-0.000594718
-0.000431706
3.90761e-06
0.000396578
0.000583263
0.00073501
0.000696746
0.000291472
2.70261e-05
-9.57105e-05
-0.000138013
-7.30406e-05
-2.08971e-05
-2.51955e-05
-1.85846e-05
4.34772e-05
8.28746e-05
6.82354e-05
-6.10754e-06
-7.00239e-05
-8.77971e-05
-5.71001e-05
1.81937e-06
3.88701e-05
5.11327e-05
1.7786e-05
-3.57293e-05
2.91821e-05
4.64212e-05
5.99168e-06
-0.000113425
-0.000180705
-0.000107462
-2.32074e-05
8.80034e-06
1.83342e-05
3.32547e-05
4.62368e-05
1.9782e-05
-4.55312e-05
-0.000109638
-0.000128543
-7.02955e-05
5.90411e-05
0.000131566
0.000139291
0.000145115
0.000119393
1.21505e-05
4.3868e-07
2.1511e-07
3.61504e-06
4.11897e-06
4.0063e-06
3.32499e-06
2.88345e-07
6.09145e-06
1.05786e-05
7.95598e-06
-1.62839e-06
5.68766e-06
1.34163e-05
2.51064e-06
-1.4046e-05
-4.75458e-06
1.88249e-06
-5.67216e-05
-3.3387e-05
-1.04985e-05
-4.38253e-05
-1.7546e-05
2.30772e-06
1.06797e-06
-1.06556e-06
1.37867e-06
-4.66268e-09
-5.7454e-06
-6.37162e-06
-6.05041e-06
-4.00383e-06
1.19116e-06
2.20336e-06
-1.29031e-05
-1.30069e-05
5.76671e-06
3.17931e-06
3.64529e-06
1.54159e-05
-3.24107e-06
-4.54794e-06
-4.09405e-07
5.35772e-06
5.83889e-06
5.44899e-06
7.34101e-06
4.32624e-06
-2.63947e-07
-2.1378e-06
9.97321e-07
1.1132e-06
2.05347e-06
4.70294e-06
-2.26498e-06
-1.52533e-05
-9.94325e-06
2.65187e-06
-3.49628e-05
-6.16519e-05
-1.07576e-05
-4.04973e-05
-2.55539e-05
-6.18512e-06
-7.07966e-06
-1.50991e-06
9.83438e-07
2.34334e-06
2.15773e-07
-1.64729e-06
-3.42336e-06
-1.90205e-06
5.78094e-06
1.35168e-05
1.20207e-05
3.05543e-07
-1.51627e-06
-2.87088e-06
-8.98486e-06
-8.2671e-06
-3.08047e-06
-2.54788e-06
-1.88216e-06
3.06517e-07
1.01319e-06
1.15444e-06
2.14232e-06
2.96337e-06
1.42083e-06
-4.15803e-07
-4.4816e-07
1.03043e-06
5.56217e-07
-5.10558e-07
-3.2058e-06
-3.46091e-06
1.95131e-06
3.43563e-06
-7.83391e-06
-3.91555e-05
-2.25536e-05
-1.84199e-05
-2.68636e-05
-1.62002e-05
-8.33606e-06
-3.24961e-07
-1.15741e-07
-6.76734e-08
4.09024e-07
5.13706e-08
-9.48324e-07
-1.96229e-06
-6.96391e-08
3.46904e-06
5.05322e-06
2.82082e-06
-1.73989e-07
-1.78541e-07
-1.63776e-06
-3.77983e-06
-9.42331e-07
-9.06051e-07
-6.22002e-07
-1.95239e-08
9.62519e-08
4.18121e-08
1.71529e-09
2.9961e-07
5.55653e-07
4.09765e-07
1.20596e-07
5.86514e-07
6.82513e-07
-5.37843e-07
-1.23249e-06
6.09573e-07
2.58205e-06
2.92871e-06
4.92717e-08
-7.68673e-06
-1.47149e-05
-5.19369e-06
-2.16529e-05
-1.2923e-05
-3.44932e-06
2.77963e-07
3.3441e-07
-9.21172e-08
-2.52651e-08
4.31475e-08
2.02321e-08
-5.46112e-07
-7.56256e-07
-4.32409e-08
6.52806e-07
7.14564e-07
2.13267e-07
-9.91372e-08
-6.26966e-08
-5.14342e-07
-1.19691e-07
-2.01245e-07
-1.36659e-07
2.87262e-08
3.33207e-08
-2.78398e-09
-2.84384e-09
-4.04881e-08
1.15369e-08
1.11879e-07
1.37447e-07
1.58193e-07
4.26672e-07
-1.6029e-07
-2.21361e-07
1.71519e-07
4.53879e-08
8.1626e-07
2.69479e-08
5.49078e-07
-1.61254e-06
-3.97418e-07
-1.16988e-05
-7.11612e-06
-8.27727e-07
1.87684e-07
4.61855e-08
2.45945e-08
-2.30527e-09
-2.08062e-09
3.19549e-08
2.58337e-08
-1.29964e-07
-1.6015e-07
-1.47961e-08
6.05316e-08
4.74542e-08
-1.35147e-08
-1.58283e-08
-2.12349e-08
-5.11634e-09
-2.88834e-08
-2.0898e-08
5.89777e-09
2.08929e-08
5.39992e-10
-6.20528e-11
-6.35469e-10
-1.08972e-08
6.45893e-09
3.34052e-08
2.71678e-09
5.54557e-08
8.68238e-08
3.59413e-08
3.136e-08
-6.84248e-08
9.70224e-08
6.9178e-08
3.30789e-07
1.63108e-06
3.99222e-07
-3.75134e-06
-2.34355e-06
-1.02068e-07
5.91591e-08
1.56859e-08
-1.92944e-09
-2.03856e-09
1.67731e-10
-7.46052e-10
2.9038e-09
2.35339e-08
-6.60572e-09
-1.79011e-08
-1.0311e-09
3.00914e-09
1.50441e-09
-2.77115e-09
-3.71938e-11
1.22011e-10
8.76837e-10
-1.54242e-09
-6.86342e-10
-1.76678e-10
-3.32917e-11
-3.35472e-10
-2.11404e-10
-1.74023e-10
-8.02093e-10
6.52919e-09
-2.08528e-09
-8.04561e-09
5.41338e-08
3.82679e-08
9.67177e-09
-1.48522e-08
-3.59216e-08
7.2003e-08
9.20327e-09
8.28093e-07
2.88125e-07
-7.33532e-07
-3.40765e-07
1.60957e-08
1.5644e-08
-1.72999e-09
-2.36333e-10
-4.26954e-12
-5.69365e-11
4.40437e-11
-2.24811e-11
5.31552e-11
2.88458e-10
-1.10739e-10
1.66446e-11
1.17688e-11
7.80518e-11
-3.55578e-11
-4.19218e-10
1.42339e-10
7.14653e-11
-2.23737e-10
-1.04033e-10
-1.04708e-11
-5.6565e-13
1.44352e-12
-1.74301e-11
-3.29411e-11
-1.959e-10
3.34631e-11
6.63497e-09
-1.1385e-09
2.46389e-08
1.20719e-08
9.9911e-09
2.43841e-09
-1.09192e-08
1.60941e-08
-1.70007e-08
1.90201e-07
1.28729e-07
-1.24298e-07
-9.16072e-09
1.68711e-08
-2.61026e-09
-2.0439e-10
-5.51442e-12
-4.0335e-14
5.2856e-13
-6.26726e-13
-5.0254e-13
-2.3707e-14
-1.188e-12
4.71404e-13
5.0243e-13
-1.26023e-12
5.3423e-12
4.63222e-13
1.72278e-11
8.24964e-13
1.57664e-12
-3.25837e-12
-1.51438e-12
-1.18795e-13
-3.21244e-15
1.22827e-15
-8.64627e-14
1.98286e-12
-3.46998e-12
-4.47502e-10
9.47103e-10
2.85868e-10
1.41931e-09
1.16907e-09
2.16734e-10
-7.76278e-10
-6.18874e-10
2.53927e-10
-1.04903e-09
2.0417e-08
3.21966e-08
-2.30201e-08
-4.54321e-09
-1.33543e-09
-1.04365e-10
-2.79856e-12
4.46429e-14
9.09931e-16
-2.34996e-15
2.2074e-15
3.32564e-15
-8.47194e-16
5.40244e-16
-1.03134e-15
-1.88467e-15
-7.87282e-15
3.7703e-14
3.98133e-15
-4.69281e-14
4.29592e-17
2.1369e-14
8.63821e-15
-4.95204e-15
-6.02912e-16
-3.96986e-17
6.72687e-18
1.58676e-16
-5.64926e-15
2.56426e-14
-1.83711e-13
2.643e-11
-1.24344e-10
3.09798e-11
2.09674e-11
2.23741e-12
-1.03151e-13
1.14783e-11
1.493e-11
4.53113e-11
7.92328e-11
4.32878e-11
-6.3411e-10
-2.68722e-10
-6.79141e-12
3.24722e-13
5.22105e-15
-8.50358e-16
-3.72799e-17
4.88326e-18
-2.27211e-18
-8.72024e-18
2.17382e-18
1.40559e-17
1.35123e-18
6.87297e-18
-1.32176e-17
9.64946e-17
1.35035e-16
-1.40612e-16
-1.11437e-17
6.70077e-17
2.90324e-16
3.95284e-17
-1.14721e-18
-6.47834e-19
2.08795e-20
6.94619e-19
1.4317e-18
-8.05247e-17
4.25261e-16
2.45917e-14
-4.57308e-13
-2.61578e-14
1.57657e-13
6.37086e-15
-1.45063e-15
1.73806e-14
-9.80699e-14
-3.35342e-13
-8.32185e-13
-2.92951e-15
-2.11059e-13
-6.8088e-13
-1.21717e-14
2.31209e-15
7.36968e-17
2.91611e-18
6.0167e-20
2.13183e-19
-7.55355e-20
-1.5317e-19
-1.93949e-19
1.14927e-18
-2.47071e-19
6.42213e-19
2.23748e-18
-4.27691e-19
1.83645e-18
-1.35527e-18
-6.36572e-20
-2.03781e-20
-6.19422e-20
-5.13177e-20
-1.91864e-20
-1.77176e-19
-8.53517e-20
2.78399e-19
-5.94439e-20
8.63306e-22
7.64784e-19
-9.22345e-18
-6.55392e-16
-2.502e-15
-4.3838e-16
-1.35947e-16
-1.10052e-17
-7.8388e-18
-2.43272e-16
1.28949e-15
2.11964e-15
-2.01355e-16
2.46639e-15
-5.59048e-17
-4.29637e-16
-4.89497e-17
-2.41892e-18
3.51947e-20
-1.3877e-19
1.73276e-19
2.19399e-19
7.45277e-20
-1.86714e-19
8.81076e-19
3.71825e-20
2.72955e-19
1.64772e-19
1.98077e-19
-2.84353e-19
2.25071e-20
2.76585e-19
3.58462e-19
1.16996e-21
4.35887e-20
7.92293e-21
2.22437e-20
1.79098e-19
2.78315e-19
4.99406e-21
7.067e-20
2.03423e-19
-1.31018e-19
-4.62389e-19
-4.98092e-17
-2.10354e-17
-1.43376e-18
-1.64463e-19
-6.57407e-20
1.84307e-18
-5.12121e-18
-4.80275e-18
-9.86829e-19
1.20916e-17
-8.01328e-18
-7.33328e-18
-5.8611e-19
-1.68804e-19
4.24358e-22
3.11249e-19
8.01433e-20
1.98569e-19
2.86159e-20
-2.0444e-19
-1.37201e-18
-6.47965e-19
4.71201e-19
3.76264e-20
4.34955e-19
-1.31014e-19
-3.74084e-20
1.79368e-19
5.07238e-20
-1.22431e-19
-1.28026e-19
-2.25706e-20
1.24317e-19
-2.91821e-19
-1.56226e-19
5.97123e-21
8.43301e-20
1.1468e-19
-7.02453e-20
2.91189e-19
-5.15855e-19
-7.24294e-19
-1.71688e-20
1.15847e-19
-4.07711e-20
3.16519e-20
7.92161e-21
4.64892e-21
4.46352e-20
3.15942e-19
4.38487e-20
-4.35088e-19
2.58733e-19
-1.87374e-20
-6.11907e-20
-1.66701e-19
-7.44191e-20
-7.04242e-20
1.72538e-19
1.26574e-19
9.28084e-19
-3.96876e-20
3.31149e-19
3.911e-19
2.29717e-19
6.70168e-20
-7.0976e-20
2.28376e-20
1.78703e-20
-3.7623e-20
-6.62143e-20
-1.27632e-19
-6.24885e-20
1.90685e-20
-2.60624e-20
-1.56067e-19
1.47851e-19
-1.38226e-19
-1.66731e-19
-1.44247e-19
6.30864e-20
-2.54053e-19
-3.82325e-19
-1.42104e-19
-7.50166e-20
-3.90367e-19
-1.12289e-19
-1.61138e-19
-1.63224e-19
-2.86815e-20
-1.04161e-19
-1.90286e-19
-2.3237e-21
-2.57313e-19
-2.45226e-20
-6.22072e-20
-1.21593e-19
-1.34158e-19
-2.12571e-20
-3.69688e-19
8.4961e-20
9.12943e-19
-3.58899e-19
6.91255e-19
-2.39697e-21
1.42326e-19
-6.33905e-19
2.7631e-19
-3.9321e-21
1.90008e-20
-4.25911e-20
-3.91157e-20
-4.84418e-20
-1.96118e-19
1.79367e-22
6.96723e-21
-1.08771e-19
-1.65947e-19
-2.71961e-20
-2.80032e-19
-1.50876e-19
-4.23168e-19
-1.75689e-19
-1.01519e-19
1.11863e-19
-5.75359e-21
8.264e-20
-3.13466e-19
1.24242e-19
-3.8789e-20
-2.84791e-20
-2.76843e-20
-4.20907e-20
-3.66854e-20
3.02168e-20
-3.2555e-20
1.14502e-20
-2.74364e-19
-1.56606e-19
9.30893e-20
-1.45304e-20
-2.69955e-19
6.41094e-19
-2.03274e-19
2.04242e-19
-1.5187e-19
1.09878e-22
1.98537e-19
-2.53948e-19
-6.21913e-20
3.66219e-20
-2.52962e-20
-1.33381e-19
-3.53964e-20
-1.63664e-19
3.13339e-20
-8.90574e-20
2.49208e-20
3.52483e-20
4.03713e-20
4.87512e-20
6.97603e-20
-1.24967e-19
-5.40467e-20
3.50629e-19
2.31727e-19
-1.17672e-20
2.13356e-20
-4.08483e-19
2.44098e-19
-4.90879e-20
-7.21242e-20
-1.32075e-19
-8.22512e-20
9.07482e-20
5.45083e-20
4.41993e-19
-6.05315e-20
-4.50261e-21
-9.425e-20
3.23007e-21
2.30175e-19
1.17882e-19
-2.33616e-20
-8.48183e-20
-1.81072e-19
-2.41209e-19
-3.91951e-20
5.99631e-20
8.29908e-20
-3.71153e-20
-2.33346e-20
2.07139e-20
-5.83158e-21
-1.36342e-19
4.01489e-20
5.5077e-21
5.67489e-20
-8.44619e-20
1.27988e-20
-4.20838e-20
-3.52929e-20
-1.77148e-20
1.77807e-20
1.67452e-19
5.05315e-20
3.62229e-20
1.89629e-20
-3.81774e-19
9.83976e-20
-7.25231e-20
9.98781e-21
6.2175e-20
1.1453e-19
-1.79989e-20
1.89656e-20
3.07613e-20
-1.04431e-20
-7.31206e-20
6.17303e-20
5.28255e-21
1.71753e-21
8.10421e-20
-1.67398e-20
1.32493e-20
-4.06108e-21
3.64304e-20
1.54644e-20
5.60425e-20
-9.53305e-20
3.01111e-20
2.32771e-20
-8.30907e-20
1.46943e-20
-8.04547e-20
-1.23525e-19
7.21473e-20
7.2889e-20
-1.47959e-19
7.6357e-20
2.37136e-20
4.76002e-20
1.23418e-20
-5.67322e-20
-1.55767e-19
3.28135e-21
-4.0281e-20
3.83296e-20
-3.246e-21
-1.60251e-19
-8.29805e-20
1.32029e-20
-2.39571e-20
-7.83809e-20
-4.67869e-20
5.0775e-21
1.72375e-21
6.3754e-21
-1.80162e-19
-5.58079e-20
-5.16394e-20
-8.68861e-21
2.93721e-20
1.63246e-19
2.77523e-20
1.33116e-21
-1.15332e-20
2.6699e-20
-2.75162e-20
3.64599e-20
5.0939e-20
-6.06068e-20
1.34361e-19
1.46037e-20
1.06245e-19
2.34047e-19
-7.91357e-21
-7.54062e-22
-1.81541e-19
-1.95336e-19
1.25404e-19
5.07337e-20
8.15102e-20
1.65691e-19
-2.26715e-19
4.56785e-20
9.80546e-20
2.22266e-20
3.76044e-20
-1.36842e-20
6.50006e-20
-3.27306e-20
1.38186e-19
1.57918e-20
-8.00743e-20
5.08102e-20
3.89408e-20
-1.27318e-20
-3.8399e-20
-7.62927e-21
-3.46901e-20
-1.45536e-19
1.51241e-19
1.53921e-19
-3.49388e-20
-2.53618e-21
6.64191e-20
0.00299109
0.00229165
0.000465541
-0.000661971
-0.000994258
-0.00175085
-0.00279655
-0.00127872
0.00234462
0.00535168
0.00670327
0.00695819
0.00665237
0.00606287
0.00567538
0.00679137
0.00878501
0.00536026
-0.0102955
-0.0308518
-0.0334396
-0.0147223
0.00583011
0.020879
0.0288381
0.0315049
0.0298756
0.0248785
0.0162691
0.00519485
-0.00542112
-0.0136869
-0.0179992
-0.017004
-0.0124673
-0.00869417
-0.00524892
-0.00188554
5.93465e-05
0.00180022
-0.000602656
-0.000304454
-0.000159423
-0.00024764
-0.00034683
-0.000295092
3.47775e-05
0.000427107
0.00032745
-0.000221671
-0.000637674
-0.000606689
-0.000274096
0.000139876
0.000469458
0.000533815
0.000169101
-0.000483119
-0.000702571
0.000178803
0.00105208
0.000707672
-0.000560052
-0.00149286
-0.00116648
-0.000278456
0.000403748
0.000614402
0.000504771
0.000295988
0.000113177
9.73704e-06
3.45732e-05
0.000202526
0.000328963
0.000127363
6.83344e-05
-2.50513e-05
-0.000420836
-0.00069771
-0.00060112
-0.000372877
-5.25606e-05
-0.000128952
-0.000463335
-0.000665145
-0.000421986
0.000855111
0.0018166
0.00124228
3.09026e-05
-0.000309339
0.000396241
0.00158818
0.00279518
0.00361035
0.00310222
9.00171e-05
-0.00443748
-0.00544565
4.27958e-05
0.00371877
0.000763326
-0.00342728
-0.00348145
-3.76083e-05
0.00407446
0.00644779
0.00631324
0.00445603
0.00234415
0.000773771
-5.48235e-05
0.000251206
0.00120094
0.00081581
2.92306e-06
0.00045835
0.000233471
-0.000357378
-0.000136418
-0.000151441
-5.19325e-06
8.15066e-05
1.72395e-05
-6.92485e-05
-0.000112975
8.31757e-05
0.000448225
0.000509884
0.000196335
-7.09404e-05
-1.42066e-06
0.000311461
0.000677455
0.000923042
0.00084821
0.0002143
-0.00105665
-0.00198263
-0.000668096
0.00119631
0.000771625
-0.000796183
-0.00139217
-0.000773593
0.000306813
0.00109358
0.00134367
0.00115731
0.000792335
0.000462121
0.00025712
0.000318116
0.00074581
0.000918235
0.000474966
0.000317576
0.000342929
7.6777e-05
-8.9633e-06
-2.23668e-05
-1.14857e-05
5.10826e-06
3.56247e-06
-7.16577e-06
-2.37298e-05
-2.71759e-05
2.83864e-05
7.5973e-05
6.87601e-05
1.62282e-05
-7.74087e-06
1.57434e-05
5.44547e-05
7.72835e-05
6.16958e-05
1.60808e-05
-0.000106911
-0.000369419
-0.000314916
6.87051e-05
0.000123514
-5.10899e-05
-0.00017269
-0.000146798
-5.50152e-05
7.88291e-06
2.72792e-05
2.28606e-05
1.97562e-06
-2.85563e-05
-5.63365e-05
-5.73117e-05
2.47879e-05
0.000156278
0.000140606
7.40217e-05
7.1483e-05
3.58597e-05
-1.90714e-06
5.06667e-06
6.46865e-06
3.83236e-07
-3.49036e-06
-9.98809e-07
-8.54659e-07
-1.25254e-05
-7.34872e-06
2.56548e-06
-4.00423e-06
-1.18484e-06
-9.32711e-08
-2.77575e-06
-4.99375e-06
-1.3732e-06
1.86076e-06
1.65058e-07
-4.94753e-06
-5.66484e-05
-0.000118668
-2.85528e-05
-3.42109e-05
-1.71134e-05
3.30756e-06
-1.54752e-06
-2.28714e-06
-2.71719e-06
-7.35722e-06
-7.69423e-06
-3.19295e-06
-8.80196e-07
-2.44175e-06
-4.31217e-06
-1.53037e-05
1.29994e-06
1.1793e-05
-1.41019e-06
-2.77687e-06
8.16826e-07
-5.47504e-06
1.59633e-06
7.12806e-06
1.75651e-06
-3.38771e-06
-2.71335e-06
3.76982e-07
-3.73618e-06
-1.32047e-05
-7.02556e-07
-8.61622e-06
-1.81335e-05
-1.33918e-05
-7.98125e-06
-2.31137e-06
4.08142e-06
3.91149e-06
2.70578e-06
-2.25789e-06
-6.28194e-06
-4.19698e-05
-2.80796e-05
-2.22107e-05
-2.0135e-05
-7.82933e-06
-6.15246e-06
-2.0905e-06
1.43997e-07
-1.66311e-06
-3.19101e-06
-8.34746e-07
3.06319e-06
5.19042e-06
1.04523e-05
5.8797e-06
-5.45196e-06
8.73805e-07
-5.72562e-06
-1.24843e-05
-1.10117e-05
-5.88332e-06
-2.23592e-06
2.22555e-06
1.0093e-06
-1.55887e-06
-1.61e-06
-5.43455e-07
-5.27063e-07
-7.60507e-06
-7.44042e-06
7.49435e-07
-8.84411e-06
-1.27973e-05
-7.61936e-06
7.87527e-07
4.20794e-06
1.01949e-06
7.32816e-07
-1.00023e-06
-2.3491e-06
-1.0172e-05
-2.05882e-05
-1.09879e-05
-1.24585e-05
-1.06597e-05
-6.02943e-06
-1.19554e-06
1.08762e-07
1.78664e-09
-2.65311e-07
-6.10218e-07
-3.82278e-07
-6.966e-07
1.11135e-06
4.34788e-06
-1.34116e-06
-2.17123e-06
-3.842e-07
-5.39508e-06
-8.86401e-06
-3.26286e-06
-2.17413e-06
-2.5155e-07
4.3249e-07
-1.17016e-07
-4.01588e-07
-5.34063e-07
-2.55899e-07
-9.96422e-07
-5.40941e-06
-8.52668e-07
2.43524e-07
-4.35997e-06
-4.09504e-06
-6.82042e-08
1.153e-06
8.32857e-08
3.47959e-07
-7.21414e-08
-1.13101e-06
-2.0603e-06
-9.71432e-06
-4.884e-06
-5.92761e-06
-5.42295e-06
-2.69967e-06
-3.6595e-07
1.5132e-08
-5.26119e-10
3.07813e-09
-2.07867e-08
-1.75575e-08
-1.97859e-07
-5.98313e-07
6.24645e-07
4.96893e-07
-1.42567e-06
-2.04118e-07
-5.56015e-07
-2.80056e-06
-9.59181e-07
-1.03803e-06
-3.18767e-07
3.60275e-07
2.5692e-07
-2.83664e-08
-1.93766e-07
-3.08424e-07
9.8786e-08
-7.23943e-07
-1.63835e-06
1.21174e-06
7.9408e-08
-1.26256e-06
-6.46284e-07
-1.76951e-07
-8.42015e-08
1.48712e-07
9.66836e-08
-2.96089e-07
-3.70684e-07
-3.02382e-06
-1.27734e-06
-2.55151e-06
-2.5444e-06
-8.43644e-07
-3.51728e-08
1.14777e-08
-9.89809e-10
2.31168e-09
7.94183e-10
6.56372e-09
2.70131e-08
-6.98762e-08
-1.9168e-08
1.38095e-07
-1.81042e-07
-2.71451e-07
5.19631e-08
-3.05327e-07
-1.27197e-07
-2.73608e-07
-1.01306e-07
1.52859e-07
1.18722e-07
1.05294e-08
-2.57955e-08
-8.29358e-08
-4.47233e-08
1.19467e-07
-3.48828e-07
3.52463e-07
7.23389e-07
-1.58977e-07
-3.74397e-07
-2.12519e-07
-6.91983e-08
8.03051e-09
7.1154e-09
-6.59102e-08
-9.15255e-08
-3.89265e-07
-6.96846e-08
-1.00149e-06
-9.00523e-07
-9.80984e-08
2.36934e-08
1.32856e-08
1.28357e-09
6.04526e-11
-2.25024e-11
-5.56807e-10
2.28335e-09
1.10229e-09
-9.41065e-09
1.23082e-08
-3.42008e-10
-6.12872e-08
-1.73017e-08
1.29188e-08
-1.64336e-09
-4.20667e-08
-1.22068e-08
2.36182e-08
1.72102e-08
9.79576e-10
-6.42612e-09
-2.17489e-09
-1.80828e-08
3.23104e-08
-4.65604e-09
2.65777e-08
2.042e-07
1.22228e-08
-7.4749e-08
-3.04194e-08
-9.49405e-09
8.91492e-10
-9.27178e-09
-1.59427e-08
-5.31493e-08
1.18532e-07
6.87769e-08
-2.11884e-07
-9.16459e-08
1.63968e-08
1.56722e-08
2.51177e-10
-3.84683e-11
-3.10314e-12
-1.98671e-12
4.34145e-12
-5.72951e-11
3.61681e-10
-1.36233e-09
7.61209e-11
4.63802e-09
-2.08378e-09
-1.08301e-08
1.71108e-10
2.63752e-10
-6.05517e-09
-1.34852e-08
-3.41251e-10
7.21304e-11
2.85992e-11
-2.79266e-11
-4.23969e-11
-3.93666e-10
3.69492e-10
7.06902e-09
-8.42875e-11
1.02223e-08
1.17103e-08
-4.67772e-09
-2.10686e-10
6.51878e-10
9.29944e-10
-1.04791e-08
3.59031e-09
-1.72238e-08
6.51795e-08
2.34612e-08
-8.90735e-10
1.68807e-08
7.52785e-09
-1.93816e-10
-1.417e-11
-1.29736e-13
1.1059e-15
7.94632e-14
-8.49588e-13
-1.82888e-12
-8.45004e-13
1.69165e-11
-7.83358e-11
-5.15484e-12
-2.49719e-11
-2.87176e-10
-8.19969e-10
1.94192e-10
-2.6614e-11
-5.56069e-10
-2.13811e-10
-1.13855e-11
2.39159e-15
1.5634e-13
-1.56704e-12
-5.26148e-12
-3.54642e-11
9.67854e-12
-8.57207e-11
5.18909e-10
4.97507e-10
9.18312e-11
2.95321e-11
-5.6944e-12
7.11151e-11
-5.26264e-12
4.28374e-11
4.55189e-10
2.18102e-08
1.28903e-09
1.28048e-10
2.88301e-09
-6.27823e-12
9.98221e-12
1.36712e-12
6.17134e-14
-8.54051e-17
-1.38604e-15
1.01017e-14
4.15594e-14
-4.01794e-14
-6.67141e-14
3.32702e-13
-1.29716e-14
1.31881e-13
-1.74614e-12
4.16189e-11
1.318e-12
1.46563e-12
-3.28894e-12
-1.29131e-12
-6.83849e-14
-2.41292e-15
4.69033e-16
7.81134e-15
-6.35191e-14
7.40728e-14
3.74864e-14
-6.06837e-13
4.51708e-13
5.4588e-12
1.31827e-12
1.70956e-13
3.16857e-14
3.72483e-13
-7.17499e-13
2.22947e-12
-5.71334e-11
4.40666e-11
-2.36346e-10
-1.64866e-10
6.69321e-11
1.15931e-11
8.86666e-13
3.22016e-14
4.61986e-16
-1.08803e-17
5.0349e-18
-3.81943e-17
-3.44414e-16
5.08721e-16
-1.55008e-16
-6.62815e-16
-4.27909e-16
2.74034e-15
-1.31807e-14
1.11405e-13
5.52195e-15
3.01505e-14
3.95929e-14
3.5146e-15
-1.73368e-16
-2.07343e-17
-2.24007e-17
1.20779e-16
-3.92664e-17
4.26203e-17
-7.6977e-17
5.20047e-16
-5.46749e-15
3.90819e-14
8.46889e-15
2.44228e-16
2.16146e-16
-5.80425e-15
8.35348e-15
1.97751e-14
-1.87394e-13
5.75051e-15
-4.46809e-13
7.24642e-13
1.82885e-12
2.17474e-13
8.28626e-15
9.94889e-17
-1.24485e-18
1.17787e-20
-3.95909e-20
-1.87751e-19
1.50404e-18
-1.39676e-18
3.54252e-18
3.32425e-19
-1.31611e-18
2.7714e-17
-1.35915e-16
4.7598e-16
1.59837e-17
1.24493e-16
3.18564e-16
3.20027e-17
1.81702e-19
-1.22719e-20
1.74325e-19
-5.98005e-19
1.71079e-18
1.96595e-19
6.46237e-20
4.84106e-18
-5.09675e-17
4.64496e-17
-1.24246e-17
-6.86148e-18
-6.82008e-19
5.09517e-18
2.45894e-17
-3.33686e-16
1.08741e-15
-5.22756e-18
-4.51541e-16
2.38213e-15
4.62854e-15
3.03237e-16
-6.39562e-18
-5.87818e-19
8.57754e-20
1.18817e-19
-2.02428e-19
3.36164e-19
-5.63949e-19
-5.04512e-19
-8.59295e-20
1.2949e-18
2.68226e-19
1.48201e-19
-1.97472e-18
5.30471e-18
5.93796e-19
-4.93757e-20
1.07497e-18
2.61049e-19
-6.30735e-20
-8.91625e-21
-1.12165e-20
-4.27073e-21
-6.48277e-20
-8.22448e-22
-2.22576e-19
-1.19807e-19
-1.02629e-18
-2.00868e-18
-3.24908e-19
3.14655e-19
-1.08104e-19
-2.91388e-19
-2.97591e-19
6.01967e-19
-1.9773e-18
-3.63799e-19
8.54086e-19
-1.02628e-17
-3.20443e-17
-6.72461e-18
-3.85846e-19
-3.68431e-20
9.07959e-20
2.10062e-20
-2.43332e-19
-1.57903e-19
-2.81556e-20
4.14173e-20
-6.35161e-19
9.99867e-19
1.71388e-19
2.6877e-19
-5.99285e-19
-7.82775e-19
-1.45387e-19
1.32051e-19
-3.12984e-20
1.37796e-19
9.96745e-20
-7.1863e-20
-3.03564e-20
7.54397e-22
8.21538e-20
-1.71265e-19
-4.24022e-20
-5.8245e-20
2.46555e-20
-9.4737e-20
3.86212e-19
-1.14119e-19
-1.97545e-19
-6.64353e-20
2.72499e-20
-1.17921e-19
-3.45429e-19
3.46289e-19
8.89803e-20
5.37689e-20
-5.68066e-19
3.98957e-19
-1.07738e-19
2.73592e-20
2.81607e-21
3.29008e-20
2.44568e-20
-3.38115e-19
4.66847e-20
3.94364e-19
-4.65805e-19
-9.53234e-19
2.89422e-19
-8.40176e-20
3.02867e-19
-2.20961e-19
-4.46528e-20
-6.76644e-20
-5.98007e-20
-4.54916e-20
2.3077e-20
-7.28837e-21
-5.38012e-20
-8.91004e-20
6.52512e-20
8.44113e-20
1.60165e-19
-6.54669e-20
-3.97413e-19
-1.38032e-19
1.18188e-19
8.94448e-20
7.39845e-21
-1.73226e-21
-1.23233e-19
-3.39767e-20
-1.29726e-19
5.34861e-20
-1.21931e-19
2.97912e-20
-3.1072e-19
9.73994e-20
1.1949e-19
7.5603e-20
-1.23515e-19
-4.8395e-20
-1.04274e-19
1.06754e-19
2.5067e-20
2.18864e-19
-6.70455e-19
-4.71286e-19
-3.25601e-19
1.07916e-19
6.99441e-20
-1.98582e-20
-1.18459e-19
1.16765e-19
-6.79139e-20
1.52439e-19
-3.6569e-20
-4.09467e-20
-4.7825e-20
-3.48089e-20
9.17644e-20
-6.01003e-20
1.29524e-19
-2.40233e-19
-1.62079e-19
3.0383e-20
-1.56435e-19
3.58383e-20
3.4063e-20
-1.10878e-20
1.90266e-19
-1.71738e-19
-8.07477e-20
-6.79777e-20
7.0902e-20
5.63964e-21
-2.09566e-20
-1.06743e-20
7.57472e-20
1.83364e-20
-1.23936e-19
-2.3982e-19
1.11589e-19
-4.54357e-19
-1.08174e-20
1.00333e-19
-3.2331e-19
7.43109e-20
-1.38846e-19
-2.05381e-19
6.97891e-20
3.68332e-19
9.1859e-20
-4.85082e-20
-2.69342e-19
2.70609e-19
6.26008e-21
-1.51304e-19
-3.6215e-20
2.33273e-20
-2.4616e-20
8.26913e-20
-5.13627e-20
-3.10417e-21
-8.3073e-20
5.3804e-22
6.41061e-20
-1.88856e-20
9.15085e-20
-3.46788e-19
-3.53426e-20
1.87824e-19
-1.29341e-19
1.8189e-21
-4.69496e-20
1.8071e-19
2.13265e-19
-1.37432e-19
1.58794e-19
-1.84614e-19
-1.41747e-19
-1.00534e-19
-4.78369e-20
-1.7145e-19
-2.02298e-19
-1.61579e-19
-4.12391e-19
-2.76925e-19
5.54089e-19
-2.55429e-19
-1.19969e-19
-1.75308e-19
-2.69025e-19
-2.85108e-19
8.76803e-20
7.8838e-21
2.95011e-19
-1.40415e-19
5.69446e-20
1.25776e-19
9.48874e-20
1.14667e-19
-8.01315e-20
3.53675e-20
-4.93823e-20
7.30023e-20
-1.16214e-19
9.27063e-20
7.88134e-20
-3.25231e-20
2.25924e-20
8.24021e-20
-1.36383e-20
-2.53731e-19
1.59195e-20
-1.69895e-21
-4.79794e-20
4.31249e-20
-2.59218e-20
-4.92681e-20
4.5181e-20
1.40505e-19
3.55555e-20
5.12906e-21
-2.58155e-20
-2.8245e-20
9.32596e-20
-8.21146e-20
1.6262e-19
1.00143e-19
-2.64155e-19
-1.2416e-19
2.85182e-20
3.39361e-20
1.21898e-19
-2.72438e-20
3.8458e-20
2.39815e-20
-6.64387e-20
-7.04492e-20
-2.18894e-20
-1.18484e-19
1.29256e-19
1.96009e-21
-2.17576e-20
-2.10735e-20
-6.1553e-20
-1.13492e-20
-3.67488e-19
8.27119e-20
-1.8104e-19
-6.14411e-20
6.18905e-20
-9.86493e-20
1.36072e-20
-3.38435e-20
-7.8478e-20
5.70004e-20
1.53045e-19
-1.83703e-20
2.35655e-20
3.56472e-20
-1.43664e-20
1.23936e-19
4.73645e-20
1.33242e-19
-3.24393e-20
6.95581e-20
9.25785e-21
-1.18774e-20
-6.54145e-20
9.68202e-21
5.48962e-20
-2.77239e-20
-1.21963e-19
-2.94263e-20
-4.72756e-21
2.837e-20
4.54269e-20
-5.28959e-20
-1.03661e-20
8.74967e-20
1.42286e-19
-2.28709e-19
2.36398e-20
-1.93076e-20
-5.69429e-20
-7.29188e-20
4.46645e-20
-3.72169e-19
5.47063e-21
-6.12023e-20
-2.89464e-20
-1.55389e-20
5.43345e-20
4.31962e-20
3.19827e-21
2.98317e-20
5.81238e-20
3.72468e-20
3.88365e-20
4.86113e-21
-1.50161e-20
7.97079e-21
2.33534e-19
1.22338e-19
-1.22971e-19
-9.70932e-21
1.19379e-19
-5.81506e-20
-1.82899e-21
1.84404e-20
-0.000231026
-0.0019996
-0.00286002
-0.00156936
0.000927553
0.00298359
0.00368551
0.00310092
0.00212908
0.00200248
0.00383561
0.00671761
0.00961853
0.0125573
0.0162596
0.0210543
0.0255239
0.0258948
0.0175307
-0.00197249
-0.0230912
-0.0227723
-0.00377077
0.0111383
0.0190102
0.0208905
0.0173729
0.0113942
0.00635729
0.00347031
0.00235436
0.0026084
0.00471382
0.00995754
0.0155034
0.0124112
0.00160272
-0.00362408
-0.00230739
-0.000261165
0.000501261
0.000460076
0.000135207
-0.000306372
-0.0005855
-0.00052164
-0.000161385
0.000253781
0.000525279
0.000537177
0.000311828
1.50093e-05
-0.000162149
-0.000163448
-6.4962e-05
3.2252e-05
7.73034e-05
8.50598e-05
0.000118741
0.000190506
0.000524265
0.0010682
0.000569417
-0.000829582
-0.00150897
-0.00112123
-0.000477281
-4.55568e-05
0.000148049
0.00021182
0.000228241
0.000282103
0.000473831
0.000799027
0.000948158
0.000587526
0.000386362
0.000754856
0.000775578
0.000538295
0.000360375
0.000354515
0.000174285
-0.000309577
-0.000689242
-0.000560831
0.00010046
0.00084726
0.00137644
0.00175039
0.00186002
0.00169884
0.00170272
0.00217064
0.00293974
0.0035379
0.00351763
0.00255769
0.000834658
-0.000787642
-0.00130857
0.00212324
0.00505162
0.0019113
-0.00149891
-0.0016395
0.000390122
0.00251862
0.00370475
0.0040607
0.00394464
0.00359192
0.00348323
0.00425358
0.00507786
0.00351527
0.00046457
0.000161743
0.000984059
0.000713729
5.51069e-05
5.03454e-05
8.23988e-05
-1.40321e-06
-0.000119104
-0.000132505
-1.2556e-05
0.000157609
0.000255923
0.000314842
0.000374664
0.000376769
0.000376588
0.000441483
0.000511393
0.000515179
0.000418701
0.000157246
-0.000377458
-0.000949187
-0.000996346
7.10936e-05
0.00157593
0.0011211
-0.00028452
-0.000805292
-0.000303562
0.00053928
0.00108722
0.0012613
0.00123632
0.00110492
0.000938559
0.000959888
0.00119205
0.00105005
0.000335239
-5.21575e-05
0.000154303
0.000175967
7.4548e-06
5.29853e-06
1.5775e-05
1.10749e-05
-9.18768e-06
-2.25999e-05
-1.65677e-05
6.81219e-06
3.29894e-05
5.20917e-05
6.62658e-05
7.02712e-05
6.46231e-05
5.58152e-05
4.12793e-05
2.20931e-05
2.21503e-06
-1.76352e-05
-6.10447e-05
-0.000178125
-0.000281368
-0.000172875
0.000130952
0.000204168
4.13514e-06
-0.000157497
-0.000161755
-5.58096e-05
4.00722e-05
7.76938e-05
7.82865e-05
6.17724e-05
3.04216e-05
2.01749e-05
7.63136e-05
0.000134204
7.94044e-05
-1.09019e-08
7.47074e-06
2.52122e-05
1.99436e-07
-2.55919e-06
-3.94676e-06
-2.99005e-06
-1.44845e-08
7.08862e-07
-7.86996e-07
-1.67627e-06
-9.27588e-07
1.40591e-06
2.66151e-06
-6.74979e-08
-1.26218e-06
-6.94382e-07
-1.4551e-06
-2.28005e-06
-1.40988e-06
5.44099e-07
1.61112e-06
-1.30067e-05
-6.36522e-05
-6.32529e-05
-9.28311e-06
-1.55776e-05
-2.6108e-06
-5.61889e-06
-1.41162e-05
-1.03877e-05
-3.33169e-06
3.89779e-07
9.02268e-07
-1.44895e-06
-9.09453e-06
-1.54556e-05
-1.02871e-05
1.29486e-06
2.84168e-06
9.1459e-07
-1.77486e-08
4.14979e-06
3.91028e-07
-1.96032e-06
-4.99446e-06
-6.54465e-06
-2.97694e-06
1.72581e-06
3.57883e-06
3.37899e-06
1.44276e-06
-1.41134e-06
-3.79554e-06
-8.84864e-06
-1.12775e-05
-7.94416e-06
-5.20299e-06
-3.97631e-06
-1.30955e-06
7.8177e-08
1.31174e-06
1.38807e-06
-1.16096e-05
-2.8037e-05
-6.6354e-06
-1.11746e-05
-1.06473e-05
-2.56529e-06
-1.60728e-06
-1.12127e-06
7.6499e-07
3.14951e-06
4.86193e-06
4.83123e-06
1.096e-06
-4.04102e-06
-5.62407e-06
-1.34627e-06
-1.46986e-06
-3.29591e-06
-4.74562e-07
8.41425e-07
-9.61123e-08
-2.42107e-07
-2.69721e-06
-3.76339e-06
-2.65826e-06
5.18618e-08
2.17049e-06
3.33338e-06
3.52846e-06
1.7494e-06
-3.79757e-07
-3.11341e-06
-6.90664e-06
-6.94753e-06
-4.1402e-06
-2.06447e-06
-6.41105e-07
-2.11722e-08
2.80341e-08
4.10298e-07
-4.23586e-07
-9.5988e-06
-6.80351e-06
-2.53315e-06
-6.28508e-06
-5.55877e-06
-2.90959e-06
-1.53452e-06
-3.81032e-07
4.55291e-07
8.56382e-07
1.03366e-06
3.01966e-07
-1.13592e-06
-2.59228e-06
-2.6737e-06
7.98925e-08
-7.26415e-07
-1.0517e-06
4.91287e-07
5.19926e-08
2.08384e-07
-7.08248e-07
-9.00591e-07
-4.87342e-07
3.67444e-08
5.26509e-07
9.90561e-07
1.59785e-06
1.65626e-06
7.45507e-07
-6.447e-07
-3.20445e-06
-4.09713e-06
-2.10359e-06
-4.21943e-07
-2.12025e-08
-6.04456e-08
5.53282e-08
1.15044e-07
1.56408e-07
-2.19499e-06
-3.45764e-06
-1.19264e-06
-2.76608e-06
-3.07155e-06
-1.84226e-06
-9.08661e-07
-3.72231e-07
-5.34329e-08
3.71422e-08
8.85882e-09
-3.78312e-08
-7.67549e-08
-1.79541e-07
-8.77027e-07
-5.88884e-07
1.36251e-07
-2.25362e-07
2.75897e-07
1.40418e-07
8.14057e-08
5.09401e-08
-7.99719e-08
-4.71081e-08
-9.32711e-08
-1.06063e-07
6.88869e-08