/*--------------------------------*- C++ -*----------------------------------*\
| =========                 |                                                 |
| \\      /  F ield         | OpenFOAM: The Open Source CFD Toolbox           |
|  \\    /   O peration     | Version:  5.0                                   |
|   \\  /    A nd           | Web:      www.OpenFOAM.org                      |
|    \\/     M anipulation  |                                                 |
\*---------------------------------------------------------------------------*/
FoamFile
{
    version     2.0;
    format      ascii;
    class       volVectorField;
    location    "50.4676134421789371";
    object      GradTUPL;
}
// * * * * * * * * * * * * * * * * * * * * * * * * * * * * * * * * * * * * * //

dimensions      [0 -1 -1 1 0 0 0];

internalField   nonuniform List<vector> 
60000
(
(3774.6 2.44005 447.14)
(3727.17 11.8731 620.355)
(3450.26 19.559 680.028)
(2981.9 15.7102 591.929)
(2515.15 4.06804 347.644)
(2278.03 -3.89216 13.9602)
(2281.97 -4.31555 -293.645)
(2400.56 -0.578766 -432.096)
(2626.13 0.173053 -313.512)
(2990.57 -1.13056 31.7996)
(3394.96 4.09587 446.789)
(3659.82 12.6608 770.381)
(3664.3 17.7207 895.246)
(3461.88 14.7579 811.317)
(3262.8 9.69105 588.963)
(3247.92 6.16231 277.398)
(3433.81 -5.58345 -108.473)
(3718.31 -24.9634 -501.988)
(3958.27 -41.8234 -826.764)
(4105.94 -37.2351 -1051.61)
(4207.66 -11.9245 -1082.57)
(4378.73 15.7979 -802.564)
(4710.55 31.4206 -248.41)
(5147.87 23.649 376.66)
(5639.75 -9.34956 867.024)
(6178.72 -54.4717 1114.24)
(6752.74 -88.4468 1159.06)
(7289.47 -98.2507 1119.92)
(7516.88 -84.3616 1055.79)
(7104.28 -56.6639 915.741)
(6232.98 -32.1473 635.738)
(5506.47 -20.0968 261.95)
(5199.18 -14.0934 -111.342)
(5240.5 -11.0191 -449.301)
(5368.59 -7.04391 -779.347)
(5068.96 -3.04233 -1039.67)
(4226.83 -3.02052 -1015.23)
(3568.3 -4.7764 -679.103)
(3464.18 -3.97447 -234.955)
(3634.82 -2.02881 162.415)
(-473.667 3.10019 -20.8231)
(-503.408 -1.26405 -46.4489)
(-528.915 -4.88962 -60.3176)
(-528.854 -4.90066 -62.0193)
(-492.845 -1.28944 -51.4323)
(-453.541 2.60315 -23.1382)
(-434.123 3.33184 21.2203)
(-419.327 1.62977 51.6867)
(-405.624 1.03591 44.4317)
(-401.207 1.74928 4.4865)
(-399.937 0.361561 -40.4896)
(-406.01 -2.33672 -72.81)
(-427.686 -4.90862 -93.5332)
(-454.314 -5.39221 -101.265)
(-475.707 -3.0198 -90.2813)
(-490.451 1.28343 -58.4643)
(-482.625 7.03673 -14.2735)
(-430.643 11.1227 22.3071)
(-344.124 10.5489 40.2092)
(-275.825 6.12266 46.5888)
(-230.856 0.530617 44.224)
(-199.195 -3.2605 29.8677)
(-179.792 -3.76281 6.56603)
(-167.604 -1.87491 -14.1075)
(-165.821 1.22816 -26.0313)
(-168.254 4.19343 -29.6519)
(-158.609 5.39132 -25.664)
(-136.54 4.51297 -18.9646)
(-130.823 3.34562 -16.3576)
(-151.544 2.54182 -17.5048)
(-170.136 1.86023 -17.0482)
(-183.807 1.73788 -13.7005)
(-210.31 2.13348 -7.1331)
(-267.138 2.47682 4.30187)
(-353.784 2.01589 23.0815)
(-439.27 0.647732 48.8873)
(-455.507 0.425234 69.509)
(-430.109 3.01331 73.8517)
(-428.887 5.83831 54.5615)
(-446.99 5.8766 15.8194)
(-1070.9 34.9059 100.846)
(-1150.53 13.9372 11.7124)
(-1174.77 -5.18787 -46.0361)
(-1126.94 -10.7606 -70.6308)
(-1014.72 -4.7349 -88.0807)
(-883.187 5.1643 -98.3393)
(-783.137 11.0716 -58.5718)
(-731.533 9.918 28.5693)
(-715.268 6.81247 101.997)
(-745.628 11.4867 105.311)
(-854.591 12.9195 24.3606)
(-995.846 3.13119 -89.34)
(-1086.48 -13.5234 -181.688)
(-1079.38 -22.7548 -225.68)
(-1011.71 -16.6382 -222.175)
(-982.378 1.13719 -190.726)
(-1037.76 26.0081 -141.135)
(-1123.2 52.4937 -76.3473)
(-1146.12 66.6447 -9.30609)
(-1116.02 54.0242 57.2703)
(-1087.73 12.2227 122.383)
(-1074.84 -37.0835 145.234)
(-1136.13 -58.7607 61.043)
(-1288.01 -41.2475 -101.008)
(-1467.55 12.0135 -242.715)
(-1629.82 74.0471 -316.868)
(-1775.6 117.829 -324.901)
(-1904.31 127.159 -287.302)
(-1987.49 104.375 -231.826)
(-1976.68 67.7326 -188.359)
(-1847.57 38.4695 -173.34)
(-1658.35 27.2128 -176.666)
(-1505.56 30.305 -171.414)
(-1451.51 34.9707 -140.992)
(-1491.73 29.9056 -85.3404)
(-1531.52 13.9864 -10.3757)
(-1425.16 2.38907 74.299)
(-1192.35 9.13953 154.772)
(-1012.83 28.405 202.568)
(-989.924 41.3087 181.773)
(-301.535 24.4554 85.2049)
(-343.536 16.7517 54.7328)
(-375.584 4.59184 17.8897)
(-368.195 -1.907 -5.10593)
(-330.971 -1.76796 -17.725)
(-289.962 0.792925 -31.7627)
(-253.852 3.89698 -38.1111)
(-221.682 5.70412 -17.8783)
(-199.537 5.29665 20.6285)
(-187.802 7.10614 55.4292)
(-200.428 11.4336 59.4253)
(-248.408 9.87898 26.3056)
(-303.551 0.0482258 -20.493)
(-322.431 -9.73078 -55.1878)
(-301.885 -10.7723 -67.7395)
(-283.047 -3.53527 -65.8832)
(-300.734 7.79598 -59.0748)
(-346.351 20.9103 -48.9238)
(-368.031 29.7011 -35.9459)
(-344.039 27.9745 -18.3408)
(-322.315 12.4267 6.99632)
(-322.727 -14.5369 34.6231)
(-346.979 -34.4466 34.1448)
(-403.673 -29.9613 -13.5554)
(-458.571 -0.229943 -69.2423)
(-488.762 35.1076 -101.353)
(-516.864 62.5865 -110.62)
(-566.796 75.748 -105.198)
(-627.613 68.4953 -87.6876)
(-671.507 46.8491 -67.8135)
(-675.436 26.4932 -59.593)
(-638.158 15.9827 -67.614)
(-577.861 15.056 -85.4416)
(-523.974 18.9542 -101.176)
(-497.083 20.2017 -100.799)
(-492.259 12.6893 -73.0437)
(-473.153 2.89151 -28.6489)
(-415.871 1.2053 15.9282)
(-341.014 9.12202 57.2782)
(-293.604 20.2445 86.075)
(-41.9843 4.67956 16.357)
(-45.1381 4.84624 16.3472)
(-52.5746 2.65765 10.2608)
(-52.5935 0.546276 3.34752)
(-44.2928 -0.0361296 -0.323197)
(-38.1516 0.0973965 -2.58648)
(-37.5907 0.426319 -5.14991)
(-36.2489 0.882464 -5.39128)
(-31.3218 1.16754 -0.774452)
(-27.308 1.53912 6.48737)
(-23.5922 2.61195 12.605)
(-23.0017 2.93415 11.5312)
(-28.5917 1.19836 4.62108)
(-34.982 -1.25026 -2.69171)
(-35.072 -2.2258 -6.18977)
(-32.4511 -1.36434 -6.13474)
(-38.5274 0.386496 -5.56617)
(-57.7143 3.3934 -5.45222)
(-71.4159 5.97121 -6.15955)
(-58.1401 5.28613 -5.22354)
(-41.3808 2.28401 -1.67559)
(-43.9595 -1.96321 2.09583)
(-51.7881 -7.32634 6.4942)
(-57.9857 -7.1335 3.37985)
(-55.9033 -1.06766 -3.2459)
(-45.812 4.67667 -6.02044)
(-41.0373 9.04444 -6.48718)
(-51.1034 15.1094 -8.11718)
(-71.6504 19.2329 -10.2266)
(-92.3101 15.6749 -10.1888)
(-103.719 9.16856 -9.07538)
(-106.188 4.90752 -9.44034)
(-101.546 3.11472 -12.4023)
(-94.2412 3.06729 -18.0457)
(-88.8872 3.93312 -25.0437)
(-81.325 3.59716 -25.3531)
(-74.3275 1.39791 -15.7303)
(-66.6511 0.00671098 -5.41244)
(-58.1667 0.47276 2.83892)
(-48.4655 2.5262 10.7795)
(-3.86093 0.254572 1.08897)
(-1.34214 0.203321 0.90803)
(-0.0637115 -0.0110383 0.284019)
(0.770629 -0.0928309 -0.141901)
(2.77081 -0.0888117 -0.321021)
(4.05556 -0.0312926 -0.159001)
(2.06121 -0.0181317 0.134056)
(-1.76189 -0.0486298 -0.093557)
(-3.28019 0.0217281 -0.126312)
(-3.599 0.194042 0.340577)
(-3.66037 0.373988 1.41001)
(-1.6994 0.226482 1.44735)
(0.687855 -0.384522 -0.207202)
(3.02937 -0.17854 -0.448044)
(5.05002 0.559657 0.238959)
(6.54246 0.544606 0.145917)
(3.69937 -0.118794 -0.347279)
(-9.34371 0.354717 0.426555)
(-25.201 2.05791 0.428396)
(-22.7501 2.04972 -1.26746)
(-4.70439 -0.123299 0.167684)
(0.470721 -0.95966 -0.0738169)
(-2.8563 -0.58928 -1.08469)
(-0.9019 -0.0212994 -0.408918)
(2.89395 -0.0439392 -0.219941)
(2.38769 -0.574473 -0.524221)
(1.19986 -0.799729 -0.631695)
(-0.11921 0.122687 0.157876)
(-2.60251 3.55426 1.18424)
(-7.64879 5.25232 0.505311)
(-11.2744 3.12908 -0.593163)
(-7.34516 0.927784 -0.691082)
(-1.39275 0.102424 -0.140522)
(-0.0903939 -0.0210425 0.0470699)
(-6.30246 0.114412 -1.40785)
(-10.6713 0.312171 -3.84135)
(-7.48979 0.216563 -2.85224)
(-2.84343 0.036235 -0.585843)
(-2.09761 -0.0148875 -0.178459)
(-4.51648 0.0156323 0.255137)
(0.746631 -0.000887241 -0.0405827)
(1.30251 -0.113401 -0.319755)
(2.30708 -0.339725 -0.914534)
(2.54164 -0.338267 -1.00773)
(3.09686 -0.246091 -0.808683)
(4.24562 -0.169218 -0.560448)
(4.48538 -0.0998342 -0.0674564)
(3.06637 -0.104401 0.340511)
(1.41422 -0.106748 0.339609)
(0.64577 -0.018528 0.197424)
(-0.379113 0.0494925 0.0891286)
(-0.434092 -0.0244763 0.238911)
(0.493305 -0.28568 -0.487906)
(1.25291 -0.129622 -1.42443)
(3.04228 0.618975 -1.5649)
(5.62212 0.760715 -1.91041)
(6.57888 0.128365 -2.0752)
(0.844565 -0.144314 -0.281678)
(-11.4792 1.03085 2.09177)
(-17.0409 1.67787 0.689639)
(-6.66513 0.172018 0.0153536)
(3.20459 -0.952929 0.510817)
(3.68424 0.100026 -1.38356)
(3.52827 0.840967 -2.30045)
(1.46732 0.0822744 -2.59473)
(-0.295282 -0.431833 -1.68452)
(-0.287035 -0.268311 -0.653702)
(-0.602227 -0.54015 -0.935366)
(-0.212388 -0.113576 -0.119299)
(0.772784 1.38361 1.24021)
(-0.252679 1.72796 1.01003)
(-0.9742 0.530393 0.0229384)
(2.78687 -0.440333 -0.0594332)
(7.1725 -0.469619 0.564036)
(6.13927 -0.133501 0.894787)
(1.04167 -0.038734 0.259816)
(-0.0081594 -0.00153417 -0.0778358)
(2.30595 0.0452438 0.905431)
(3.87342 0.133106 1.0492)
(2.48773 0.0932973 0.291134)
(0.789682 0.0631198 0.0926883)
(0.607944 0.00977981 -0.052731)
(0.898317 -0.0804128 -0.264078)
(0.777487 -0.125561 -0.369633)
(0.658539 -0.113829 -0.333116)
(0.958162 -0.114244 -0.327013)
(1.47092 -0.104403 -0.242574)
(1.55347 -0.0850402 0.000489274)
(1.08136 -0.065734 0.143597)
(0.660659 -0.0172378 0.139693)
(0.125986 0.0219222 0.0411458)
(-0.237467 -0.0272054 0.0416652)
(0.0862027 -0.111205 -0.0410761)
(0.307552 -0.0584738 -0.562397)
(0.876284 0.201545 -1.21535)
(2.03937 0.26448 -1.6257)
(3.21845 0.0809652 -1.86117)
(2.38019 -0.17254 -1.10295)
(-3.16678 0.419118 1.14065)
(-9.28699 1.33664 1.69499)
(-7.71833 0.440214 0.372027)
(0.803247 -0.617669 0.452133)
(4.23558 0.0320873 -0.612945)
(1.73167 0.468678 -2.18435)
(-0.610398 -0.0383418 -2.13899)
(-0.504546 -0.183915 -0.980811)
(0.00493936 -0.021409 -0.0249824)
(0.0442913 0.0142763 0.0515578)
(-0.257158 -0.145258 -0.377485)
(-0.0942041 -0.0250715 -0.0584806)
(0.430479 0.339763 0.559203)
(0.211884 0.428837 0.426429)
(-0.0224128 0.0552079 -0.0203577)
(1.24233 -0.264194 -0.00885321)
(2.53823 -0.171196 0.263269)
(1.78127 -0.0225044 0.323465)
(0.584109 0.00335485 0.168967)
(0.932502 0.0455661 0.341281)
(1.58329 0.09489 0.624394)
(1.46594 0.117802 0.416466)
(0.285785 0.0400033 0.0749525)
(0.232501 0.0283422 0.0151799)
(0.275308 0.00631724 -0.0349995)
(0.218061 -0.013644 -0.0617725)
(0.096173 -0.0124031 -0.0347851)
(0.123997 -0.0147131 -0.0352408)
(0.191974 -0.0239265 -0.0540186)
(0.284162 -0.038466 -0.0419168)
(0.261536 -0.0302347 0.00798404)
(0.134781 -0.00746613 0.0377717)
(-0.0784968 0.0131019 0.0270519)
(-0.203627 -0.0108147 0.00895721)
(-0.0243517 -0.0559556 0.00690485)
(0.142242 -0.0351501 -0.140479)
(0.325366 0.0284201 -0.425876)
(0.486814 0.0229188 -0.463317)
(0.714555 -0.0113983 -0.507883)
(1.23404 -0.152222 -0.704659)
(0.0776679 -0.00721452 -0.050868)
(-2.59613 0.850344 0.94555)
(-4.21048 0.528013 0.602511)
(-0.0768381 -0.322941 0.249702)
(3.23908 -0.0188675 -0.315449)
(1.05423 0.135501 -1.46413)
(-0.241804 -0.0949293 -1.10708)
(-0.13102 -0.0784007 -0.383433)
(-0.0479475 -0.0243224 -0.139144)
(0.0158939 0.00355237 0.0336186)
(0.028614 0.00266597 0.0454689)
(-0.0427207 -0.00642565 -0.0769439)
(-0.0226859 -0.00340874 -0.0192512)
(0.0914457 0.0420836 0.128109)
(0.0675879 0.0809864 0.0997096)
(-0.00639197 0.0150045 -0.00029507)
(0.212118 -0.055348 0.025587)
(0.43792 -0.0336202 0.0863458)
(0.322049 -0.00248465 0.0877634)
(0.25282 0.0158195 0.0843063)
(0.330845 0.0287228 0.1278)
(0.365113 0.0421845 0.143146)
(0.0490224 0.00975617 0.0189092)
(0.0597779 0.0105889 0.0112683)
(0.0768698 0.00663374 0.000887282)
(0.0666035 0.0019057 -0.00549612)
(0.0181487 -0.000398514 -0.001039)
(0.00832797 -1.52394e-06 0.000122635)
(0.00856382 0.00202754 -7.96834e-05)
(0.0218764 -0.00376424 -0.00156408)
(0.037515 -0.0079935 -0.00228489)
(0.0104688 -0.0022808 0.00446534)
(-0.0764304 0.00637373 0.00978292)
(-0.168726 -0.00556883 0.00250392)
(-0.0505946 -0.0238588 -0.00187202)
(0.105036 -0.0105048 -0.0387269)
(0.132308 -0.00314006 -0.108139)
(0.0761199 -0.00944278 -0.0674009)
(0.00454867 -0.00113208 -0.0031196)
(0.198007 -0.0724694 -0.120204)
(0.156118 -0.125312 -0.0865411)
(-0.200862 0.325513 0.0983975)
(-0.923955 0.440561 0.185543)
(-0.125962 -0.121269 0.0997334)
(1.68092 -0.0676627 -0.179248)
(0.764757 -0.00136713 -0.733184)
(0.0660557 -0.0649125 -0.499275)
(0.00462595 -0.0261487 -0.130871)
(0.00634618 -0.00422489 -0.0106054)
(0.000863236 0.00127279 -0.013345)
(-0.000256332 -0.00160558 0.00726863)
(0.00685144 -0.00158116 0.00865383)
(-0.00762319 0.00217836 -0.0141553)
(-0.00635929 -0.000130291 -0.00770014)
(0.0113199 0.00245078 0.0143533)
(0.0136386 0.0103841 0.0115617)
(-0.000705842 0.00270673 -0.000773798)
(0.0193247 -0.00779972 0.0103374)
(0.0489703 -0.0055107 0.0207859)
(0.0451495 0.00137529 0.0202929)
(0.0425229 0.00446901 0.018043)
(0.0583011 0.0080737 0.0261362)
(0.00894794 0.0018321 0.00500097)
(0.0132367 0.00372254 0.00421434)
(0.0138387 0.00237563 0.00156447)
(0.015059 0.00120503 0.000538228)
(0.0188089 0.000728968 0.000945948)
(0.00126682 4.10344e-05 0.000125968)
(0.000761782 0.000507654 3.23206e-05)
(5.7374e-05 1.39272e-05 3.0071e-05)
(0.00510006 9.61187e-05 0.00118241)
(0.00592077 -0.00162907 0.00087335)
(-0.0139703 0.00167176 0.00104128)
(-0.0530618 -0.000693803 0.00040912)
(-0.0275701 -0.00676092 -0.00402805)
(0.033743 -0.00267204 -0.00166365)
(0.0440254 -0.00258343 -0.00321399)
(0.0115629 -0.00459323 -0.00292538)
(-0.00255622 0.00358914 -0.000313853)
(-0.00179608 -0.00392507 0.00514868)
(-0.0310184 -0.0324101 0.0764964)
(0.0193021 0.0502535 -0.0477702)
(0.0403807 0.203136 -0.141979)
(-0.0401124 -0.0136225 0.0158159)
(0.537955 -0.0872137 -0.0530636)
(0.402445 -0.0311283 -0.241507)
(0.115808 -0.0217963 -0.139587)
(0.0240066 -0.00451028 -0.0273403)
(0.007044 0.0003429 -0.00562426)
(0.000664142 -5.81e-05 0.00031267)
(-0.00113785 0.00319977 -0.00584156)
(3.32919e-05 -6.18516e-05 0.000118946)
(0.000222474 -0.000131374 0.000391944)
(-0.000165936 5.77482e-05 -0.000261626)
(-0.0031755 0.000623325 -0.00465266)
(5.78772e-05 8.10931e-06 7.06789e-05)
(0.0016367 0.000636393 0.000605406)
(8.80717e-05 0.000114165 -0.000150964)
(-0.000249294 -0.000975526 0.00175495)
(0.00217809 -0.000583786 0.00257215)
(0.00578429 0.000312714 0.00462501)
(0.00660292 0.000854126 0.00416125)
(6.14594e-05 1.09811e-05 5.63258e-05)
(0.00161288 -0.000547397 0.000600053)
(0.00449117 -0.000579469 0.000701841)
(0.00122946 3.42017e-05 0.00012732)
(0.000334205 1.37339e-05 2.4934e-05)
(5.34279e-05 8.78168e-06 3.55624e-06)
(-0.000121042 9.64868e-07 -1.08066e-05)
(-0.000122996 1.01017e-05 -3.22699e-05)
(8.87132e-05 1.78449e-05 8.01436e-05)
(8.13811e-05 -2.36233e-06 0.00011752)
(-0.000231799 0.000222744 -2.97059e-05)
(-0.00590614 -0.000191025 -0.000420466)
(-0.00834488 -0.00158814 -0.00137898)
(0.00944459 -0.000511473 0.000395223)
(0.0191558 0.00115794 0.00958252)
(0.00351292 0.000272467 0.0063693)
(0.00236479 -0.00140198 -0.00413328)
(0.0055764 -0.00277536 -0.0101031)
(-0.0133096 0.00274897 0.0396168)
(-0.00133667 0.00234212 0.00316417)
(0.0334907 0.0407649 -0.115849)
(5.43903e-05 0.0111202 -0.0134991)
(0.0942249 -0.0474669 0.00110501)
(0.140229 -0.0221203 -0.0441673)
(0.0479629 -0.00320701 -0.0173956)
(0.00979551 -0.00169547 -0.00151154)
(0.00525803 0.00256615 -0.0028099)
(7.7684e-05 0.000152041 -0.000142914)
(2.9239e-06 -1.62569e-05 1.86146e-05)
(-5.03611e-06 1.0188e-05 -1.4894e-05)
(9.46907e-06 -1.02567e-05 2.15769e-05)
(6.97028e-06 -3.81272e-06 1.30466e-05)
(4.60589e-06 -1.18466e-06 7.76167e-06)
(-1.23902e-05 1.57812e-06 -2.19108e-05)
(1.05417e-06 1.15043e-07 2.43333e-06)
(1.3216e-06 -2.38017e-07 4.47383e-07)
(-8.09426e-07 6.17558e-07 -2.54216e-06)
(2.97061e-05 -1.474e-05 5.35001e-05)
(6.08795e-05 -5.1639e-06 7.36789e-05)
(-8.48777e-06 2.51577e-05 -8.71984e-06)
(9.51722e-06 -7.90168e-06 9.44144e-06)
(5.25803e-05 -1.32892e-05 3.89606e-05)
(0.000137218 -8.07165e-06 4.66094e-05)
(4.2735e-05 1.02587e-06 7.15239e-06)
(3.55946e-06 4.52063e-07 2.26849e-07)
(2.18314e-07 8.08291e-08 -2.95635e-09)
(2.28287e-07 6.42116e-08 -5.16251e-08)
(-1.83832e-06 -5.62793e-07 7.49225e-08)
(-7.71517e-06 1.48311e-06 -2.84477e-06)
(1.7816e-05 5.74687e-06 3.9351e-05)
(4.67569e-05 9.47578e-06 4.38003e-05)
(-0.00381464 -0.000145305 -0.000552527)
(-0.000715443 -0.000105615 -9.03474e-05)
(0.00917729 0.0009272 0.00147782)
(0.00667024 0.00142361 0.00319716)
(0.00199703 0.00189856 0.00412731)
(-6.9158e-05 0.000148443 0.000332023)
(0.000353841 -0.000395308 -0.000931811)
(-0.00242975 0.00308284 0.0085197)
(-0.000316287 0.00158917 0.00807576)
(-0.00286545 0.00140437 -0.0333588)
(-0.00325616 0.00444459 -0.0110723)
(0.0145029 -0.0130304 0.00414346)
(0.0307577 -0.00856294 -0.00209959)
(0.0177286 -0.0020182 -0.00163354)
(0.00658478 0.00149273 -0.000359256)
(8.48633e-05 7.89276e-05 -2.23125e-05)
(6.81767e-07 2.36165e-06 -1.13295e-06)
(1.12415e-08 2.05891e-07 -1.63301e-07)
(1.6629e-09 -4.67215e-08 5.108e-08)
(-6.77467e-09 3.71567e-08 -6.25938e-08)
(-1.39523e-08 1.35762e-08 -4.37607e-08)
(-1.8587e-08 5.02739e-09 -3.86133e-08)
(5.56438e-08 -5.69909e-09 1.12434e-07)
(-2.70079e-09 -6.39658e-10 -7.52857e-09)
(7.22938e-09 3.06478e-09 -2.08719e-08)
(-1.10076e-07 -4.82766e-09 -1.58771e-08)
(3.14991e-06 -1.56161e-07 1.52433e-06)
(1.00908e-06 -2.6164e-08 6.32634e-07)
(-1.64369e-06 -1.41103e-06 -1.81286e-06)
(2.31349e-08 -3.27766e-08 9.4068e-09)
(3.43745e-07 -2.0777e-07 3.15566e-07)
(8.99768e-07 -2.80827e-07 6.07829e-07)
(2.58501e-07 -4.01376e-09 9.47281e-08)
(1.88172e-08 6.09958e-09 1.75508e-09)
(7.65659e-10 6.57715e-10 -2.01993e-10)
(1.25418e-10 -6.06298e-11 -2.97077e-11)
(-5.24106e-09 1.77808e-10 6.06613e-10)
(1.346e-07 2.57649e-08 5.20515e-08)
(-1.77562e-06 -3.16094e-07 -2.0997e-06)
(3.53207e-05 -3.33381e-06 4.38734e-05)
(-7.48168e-05 1.38796e-05 -2.9165e-05)
(-0.000135481 4.03404e-06 7.61956e-06)
(0.000300397 3.49647e-05 -9.21048e-06)
(0.000169659 5.82823e-05 4.04214e-05)
(1.48479e-05 2.01605e-05 2.42009e-05)
(9.38304e-06 -4.90032e-05 -7.77471e-05)
(1.95704e-05 -5.73407e-05 -0.000111312)
(1.17167e-06 -3.03749e-05 -7.23574e-05)
(0.00146972 0.00210281 0.00657449)
(-0.00252115 -0.00117644 -0.00547356)
(-0.00328708 0.000183449 -0.00413157)
(0.00270825 -0.00142931 0.00122552)
(0.0022852 -0.00100373 -2.60625e-05)
(0.0024482 0.000396099 -0.000370742)
(4.53164e-05 8.37955e-05 -2.5698e-05)
(9.1756e-07 4.09469e-06 -1.43095e-06)
(5.03096e-08 1.39271e-07 -5.60174e-08)
(2.46917e-09 3.54395e-09 -1.34664e-09)
(2.34675e-10 2.12762e-10 -8.10895e-11)
(-6.50066e-11 -5.26972e-11 4.67396e-11)
(-2.50241e-12 -2.07425e-11 6.53448e-11)
(4.52933e-11 -9.98011e-12 1.12886e-10)
(-1.91384e-10 1.02109e-11 -3.70859e-10)
(4.84289e-12 5.32154e-12 1.68204e-12)
(-1.84673e-12 -1.56523e-11 1.1242e-10)
(-1.90982e-10 -3.87892e-11 6.08987e-11)
(5.40242e-09 5.01837e-10 2.1633e-09)
(8.97976e-09 5.59256e-10 4.82225e-09)
(-3.87645e-08 -1.45726e-09 -2.51132e-08)
(-2.23034e-10 -5.17583e-11 -1.59303e-10)
(2.14058e-09 -1.25143e-09 1.36316e-09)
(5.34069e-09 -2.61295e-09 5.29335e-09)
(8.76291e-10 3.81173e-12 1.24464e-09)
(3.70788e-11 5.50625e-11 7.73719e-11)
(1.42436e-12 4.14148e-12 2.32388e-12)
(-1.18233e-12 5.63763e-13 -1.27599e-13)
(3.16931e-11 2.21245e-12 1.55682e-12)
(-5.74821e-10 -1.28218e-10 -1.58803e-10)
(5.43244e-09 1.53771e-09 4.35592e-09)
(-1.70106e-08 -2.2021e-09 -2.44956e-08)
(-5.32623e-07 1.78819e-07 -7.73397e-07)
(5.45306e-06 -1.64336e-06 4.35241e-07)
(9.76098e-06 9.61288e-07 -2.72222e-06)
(1.2471e-06 6.05053e-07 6.9449e-09)
(1.31919e-07 1.49828e-07 1.39071e-07)
(-3.3156e-08 -6.6259e-08 -1.03841e-07)
(-4.74443e-07 -6.05892e-07 -1.23623e-06)
(-3.04498e-06 -2.13443e-06 -4.0958e-06)
(-4.01236e-06 -2.55483e-06 -3.84642e-06)
(1.99859e-05 1.21731e-05 1.97299e-05)
(-1.52972e-05 -6.00888e-06 -1.20744e-05)
(5.30144e-05 9.27762e-06 2.4146e-05)
(4.37176e-05 8.6503e-06 4.79961e-06)
(6.86676e-06 4.9911e-06 -1.48095e-06)
(2.85976e-07 2.55294e-07 -5.34573e-08)
(2.33119e-09 1.02543e-09 4.12641e-10)
(-6.21629e-10 -2.32613e-10 -2.15341e-11)
(-3.96963e-11 -8.17293e-12 -8.16898e-12)
(-1.91603e-12 -1.23413e-13 -7.27404e-13)
(7.70407e-14 -1.04661e-14 2.68856e-14)
(6.37444e-14 -3.90761e-14 -2.3345e-14)
(-6.70017e-14 -1.88501e-14 -1.31521e-13)
(4.56641e-13 -7.38543e-15 6.20491e-13)
(2.77866e-15 -2.34955e-14 2.05465e-14)
(-1.9379e-13 3.00627e-14 -6.224e-13)
(-2.40924e-14 -2.21125e-14 1.23553e-13)
(3.39502e-12 7.86782e-13 3.9425e-13)
(4.45117e-11 7.95719e-12 2.0421e-11)
(-2.21562e-10 -2.28588e-11 -1.15535e-10)
(-1.89281e-12 -6.76035e-15 -5.41907e-13)
(6.67876e-12 -4.0999e-12 8.56121e-13)
(4.05853e-11 -1.50757e-11 1.65553e-11)
(7.58882e-12 -3.09817e-13 6.94041e-12)
(3.92141e-13 1.77405e-13 7.20375e-13)
(9.85448e-15 -3.1472e-16 4.14383e-14)
(-9.11278e-15 -5.31382e-15 1.6294e-15)
(-4.66133e-14 2.59982e-14 -2.12385e-14)
(8.55763e-13 1.34007e-13 2.30177e-14)
(-9.27797e-12 -3.88783e-12 -2.02459e-12)
(4.37026e-11 2.79981e-11 2.84602e-11)
(-2.91029e-10 -3.16269e-10 -5.21125e-10)
(8.29259e-10 1.50614e-09 3.49666e-09)
(1.47957e-08 4.59784e-09 -1.12459e-08)
(7.2684e-09 3.10594e-09 -6.89891e-10)
(1.56694e-09 5.71537e-10 5.87452e-10)
(-1.41204e-10 -3.20754e-11 -5.44349e-11)
(-1.35468e-09 -5.01046e-11 2.23592e-11)
(8.84914e-09 8.42074e-10 -4.91266e-09)
(1.69298e-08 8.91432e-09 -1.65181e-08)
(-3.82165e-08 -4.9786e-08 1.6123e-08)
(9.46812e-09 9.05933e-09 5.41645e-09)
(9.40281e-08 4.12593e-08 4.45836e-08)
(3.42974e-07 8.89778e-08 8.25601e-08)
(9.73569e-08 1.76053e-08 1.06751e-08)
(6.09552e-09 6.93324e-10 4.51946e-10)
(2.73483e-10 1.43591e-11 2.14472e-11)
(1.14342e-11 6.03816e-14 1.12978e-12)
(3.32393e-13 -1.3236e-14 5.84884e-14)
(1.88738e-13 -1.76115e-14 6.84778e-14)
(8.79935e-14 -2.96133e-14 3.25634e-14)
(-8.20994e-14 6.89654e-15 3.95645e-15)
(-1.44423e-14 -3.26342e-14 -9.84622e-15)
(-3.97181e-14 -1.57471e-14 -4.1393e-14)
(-1.00988e-14 -4.75785e-15 -1.56894e-14)
(3.8564e-14 1.27498e-14 6.98723e-14)
(3.02191e-14 -8.06281e-15 -1.41647e-13)
(1.18428e-14 -2.77986e-15 5.82758e-15)
(6.24871e-14 4.23411e-15 4.59186e-15)
(-8.34376e-13 -2.17052e-13 -1.78094e-13)
(-4.30271e-14 -6.06425e-16 -5.98412e-15)
(-1.7098e-13 6.43698e-14 4.45363e-16)
(9.13167e-14 -2.17772e-14 2.77011e-14)
(-4.72833e-14 1.25862e-14 -8.10582e-14)
(8.49885e-15 -1.36085e-14 2.24219e-14)
(7.15396e-15 -4.12709e-14 8.6202e-14)
(5.50073e-15 2.22861e-14 -2.41694e-14)
(4.89893e-17 5.91326e-16 -6.07092e-16)
(1.98066e-15 -1.22966e-15 -4.07713e-15)
(-6.28157e-16 5.35847e-16 -9.28263e-16)
(-9.82797e-14 -1.28532e-13 2.38853e-14)
(-2.66715e-13 -8.68702e-13 -6.61187e-14)
(-3.24893e-12 1.88952e-11 1.51008e-12)
(-3.35514e-11 4.78788e-11 -4.32638e-11)
(3.33693e-11 -1.24505e-11 -1.97859e-11)
(1.36503e-11 -4.96275e-12 -4.13322e-12)
(-1.13778e-14 -2.2492e-14 -2.98552e-16)
(-1.76799e-12 2.30564e-13 1.25865e-12)
(-9.44446e-12 -2.29293e-12 8.22655e-12)
(-7.08393e-11 -5.87724e-11 5.95501e-11)
(1.15164e-10 1.932e-10 -4.55641e-11)
(-9.94243e-13 -1.89009e-12 -5.48504e-13)
(1.07497e-10 6.52376e-11 8.9824e-11)
(1.23005e-09 2.26946e-10 5.29685e-10)
(4.93565e-10 3.02379e-11 1.13105e-10)
(4.60221e-11 7.18333e-13 6.12772e-12)
(2.60349e-12 3.89121e-14 2.0906e-13)
(3.59812e-13 1.5983e-14 1.55935e-14)
(1.85308e-13 -1.29569e-14 2.60128e-14)
(-2.21249e-13 3.6918e-14 -4.66556e-14)
(1.37128e-13 -3.67041e-14 4.41797e-14)
(-1.69347e-15 -6.46466e-15 -1.5575e-14)
(-1.02371e-14 -6.87083e-15 1.12239e-14)
(-2.37812e-14 3.8847e-14 5.78391e-15)
(-5.08463e-14 -1.79025e-14 -5.82988e-14)
(8.26033e-14 4.80515e-14 1.20366e-13)
(1.06707e-14 5.38975e-15 1.20031e-14)
(-5.85545e-14 -1.08296e-14 -5.26248e-14)
(-5.14605e-14 2.87984e-14 -9.35864e-15)
(-4.07231e-15 -2.18232e-15 -1.28332e-14)
(-1.80652e-14 2.37118e-14 4.54372e-15)
(-1.62993e-14 3.00756e-14 -3.02681e-15)
(-5.02997e-15 -4.90764e-16 -2.8462e-16)
(-2.58456e-14 -2.43448e-14 9.64142e-15)
(-6.12203e-14 -8.29153e-15 -4.33463e-14)
(-9.53218e-15 1.11577e-14 -1.18675e-14)
(3.02311e-14 9.09211e-15 -1.21646e-14)
(8.89938e-15 -6.49409e-15 6.62734e-15)
(-1.18854e-14 -8.61873e-15 3.04947e-15)
(-4.31315e-15 -1.25765e-14 9.52107e-15)
(-2.38421e-14 -1.54919e-14 3.20583e-15)
(2.08638e-14 1.90888e-14 8.30669e-16)
(-4.4146e-14 3.20684e-14 2.09587e-14)
(1.00096e-13 1.43089e-13 -3.00604e-13)
(2.8543e-13 -3.61358e-13 -4.62454e-13)
(1.60493e-14 -1.58612e-14 -5.2937e-14)
(3.54318e-14 -3.77911e-14 4.41642e-15)
(1.86916e-14 1.4643e-14 -3.18519e-14)
(-3.09649e-14 1.17814e-14 -6.83831e-15)
(2.50592e-13 2.28188e-13 -4.70963e-14)
(-3.61111e-13 -3.29821e-13 -1.55036e-13)
(1.3364e-14 7.05142e-15 3.28025e-14)
(1.84378e-13 6.09632e-14 3.51936e-13)
(2.42087e-12 7.92837e-14 3.81565e-12)
(9.36594e-13 -5.83881e-14 1.03651e-12)
(5.20947e-14 -7.26877e-15 3.62834e-14)
(8.32406e-14 -2.86896e-15 9.74045e-15)
(3.63734e-14 3.2048e-15 1.1949e-14)
(5.99504e-14 7.65951e-15 1.11223e-14)
(-2.39515e-14 1.59225e-14 -7.69533e-15)
(-9.22927e-15 6.96051e-15 -8.24341e-15)
(-8.75251e-14 -7.90048e-15 -2.56356e-14)
(-8.95742e-14 1.40322e-14 -2.69529e-14)
(-4.17566e-15 2.65818e-16 5.78967e-15)
(2.0154e-14 -1.3904e-14 -1.90234e-14)
(9.14462e-14 -3.17294e-14 5.18728e-14)
(4.90961e-14 1.13786e-14 5.6084e-14)
(4.03473e-14 -8.1897e-15 1.23993e-14)
(-3.32413e-14 -8.81756e-15 -5.77497e-14)
(3.40207e-14 -3.39833e-14 -1.86413e-14)
(-9.68689e-14 2.0046e-14 -5.64465e-14)
(-3.46565e-14 2.68013e-14 -9.27909e-15)
(9.66448e-15 -5.53393e-14 -2.78738e-14)
(8.74288e-15 2.02024e-14 3.24386e-14)
(9.33409e-14 -1.04705e-14 -3.17172e-14)
(2.52021e-14 5.11796e-15 -4.75681e-14)
(4.65644e-14 -3.3374e-14 6.54779e-14)
(-1.26736e-14 3.28329e-14 -3.22702e-14)
(-2.03206e-14 1.10721e-14 -3.12134e-15)
(9.85347e-16 -1.32107e-15 -8.59667e-16)
(3.03583e-15 2.08412e-14 -1.52489e-14)
(5.6315e-15 -2.45904e-14 1.9235e-15)
(3.9114e-14 2.67847e-14 1.6117e-14)
(-3.64817e-15 7.84295e-15 3.71049e-15)
(-1.36945e-14 3.30671e-14 1.61586e-14)
(-4.13781e-14 2.92415e-14 1.12199e-14)
(3.13865e-14 -3.27746e-14 2.26255e-14)
(-7.11511e-14 3.60712e-16 -4.91826e-14)
(3.92293e-14 5.72206e-15 2.74194e-14)
(-5.23388e-15 4.06818e-14 -2.19585e-14)
(-1.45189e-14 -1.60042e-14 -3.79527e-15)
(-8.70308e-15 1.81831e-14 1.09981e-14)
(7.96281e-15 -1.47814e-15 7.27452e-14)
(-1.08637e-14 -3.36682e-15 8.74212e-14)
(-1.35562e-13 5.02308e-15 1.00296e-13)
(6.37136e-14 -5.65912e-15 -4.30588e-14)
(8.81942e-14 -2.26487e-14 -1.87878e-14)
(2.92041e-15 3.57424e-15 1.58658e-15)
(-2.29957e-15 -2.83503e-15 -7.00501e-14)
(-3.00091e-14 3.97371e-15 -4.46091e-14)
(-1.31134e-14 7.15467e-15 -5.21542e-15)
(-7.81828e-14 -3.20313e-14 -6.3404e-14)
(-1.39891e-14 -1.63604e-14 3.82312e-15)
(-6.13143e-14 1.68029e-15 -5.17046e-14)
(-2.53898e-14 -1.05431e-14 1.24923e-15)
(6.88519e-14 -4.55168e-14 1.11123e-14)
(5.05341e-14 3.8231e-15 8.71217e-14)
(-6.40998e-14 -1.39814e-14 -7.23285e-14)
(5.14124e-14 7.51971e-15 5.50873e-14)
(1.81645e-14 4.40148e-15 7.12896e-15)
(-2.7176e-14 1.31726e-14 1.26847e-14)
(-5.34082e-14 1.35647e-14 4.8916e-16)
(-1.6173e-14 9.60327e-15 1.4728e-14)
(2.74703e-14 6.93979e-15 1.89845e-14)
(5.86921e-14 1.1415e-14 1.18354e-14)
(-1.74427e-14 -2.25455e-14 -1.23073e-14)
(4.46128e-14 -2.92321e-15 1.22376e-14)
(-3.04064e-14 7.45469e-15 9.21219e-15)
(2.86017e-14 -6.41856e-15 5.68104e-15)
(0 0 0)
(2.2696e-15 7.899e-15 9.12205e-16)
(-6.91496e-15 -2.99764e-15 4.70958e-15)
(7.19024e-16 1.84497e-15 1.07066e-15)
(2.36785e-14 1.25734e-14 2.39959e-14)
(-3.13022e-14 -8.45634e-15 -3.68226e-14)
(4.45767e-14 1.79331e-14 3.26272e-14)
(-3.73246e-14 -1.34809e-14 -5.70839e-14)
(-2.44931e-15 -2.03885e-14 1.98409e-16)
(-6.3495e-23 2.23041e-23 -7.5022e-23)
(5.52497e-15 -2.30717e-14 1.6179e-15)
(-2.17314e-14 -3.43359e-15 -7.04582e-15)
(-2.13878e-14 1.13903e-14 -5.85483e-15)
(-1.40056e-15 3.06465e-15 -1.06866e-15)
(-2.64855e-15 2.72295e-15 -2.11136e-14)
(4.67953e-14 -1.07332e-14 -4.50602e-14)
(8.7295e-15 5.69519e-15 3.00897e-15)
(2.21133e-14 -2.1981e-14 -1.48565e-14)
(-7.92818e-15 -6.50946e-15 -3.84599e-14)
(2.37048e-15 -7.64987e-15 9.53044e-15)
(-8.46404e-15 -1.17947e-14 -3.76365e-14)
(2.9486e-14 2.55215e-14 7.55566e-14)
(0 0 0)
(2.61593e-14 1.08059e-14 3.86511e-14)
(2.31156e-14 1.90038e-15 1.26943e-14)
(-2.66796e-13 -2.13309e-14 -3.67696e-14)
(3.85227e-15 1.37434e-15 -2.3643e-16)
(2.83048e-14 -2.84565e-14 3.72588e-14)
(6.97218e-15 3.00063e-15 7.92966e-15)
(3.1853e-14 -1.76656e-14 -5.26978e-14)
(6.66238e-14 -3.97336e-15 1.45124e-14)
(-3.2979e-14 2.92183e-15 6.47633e-15)
(6.27947e-14 2.26431e-14 -1.21887e-14)
(-1.08347e-15 2.62114e-15 5.40462e-15)
(5.66303e-15 2.60981e-14 -1.25073e-14)
(-2.52973e-14 1.33615e-15 -1.97955e-14)
(2.51686e-14 -6.42067e-16 2.75901e-14)
(-1.78224e-14 1.58734e-14 4.88471e-14)
(3.74952e-14 -6.37887e-15 -6.9441e-15)
(-1.66587e-14 1.7702e-15 -9.64111e-15)
(-4.94885e-14 -3.13264e-16 -3.17159e-14)
(1.95562e-14 1.43253e-14 1.11436e-14)
(4.87445e-15 -9.2107e-15 -4.58164e-15)
(8.10507e-15 -5.29454e-14 -1.28373e-14)
(1.41485e-14 1.35538e-14 1.13856e-14)
(1.29146e-14 -1.09783e-15 2.59471e-14)
(-2.36654e-14 -8.93873e-16 -4.87138e-15)
(-8.37361e-14 -1.57424e-14 -6.30771e-14)
(6.72599e-15 -5.52806e-15 -7.26054e-16)
(2.50159e-14 -4.59824e-15 1.41466e-14)
(-1.37857e-14 1.62616e-15 -2.92676e-14)
(1.86735e-14 -2.68479e-14 1.74863e-14)
(-2.35838e-14 2.50298e-14 -7.4298e-15)
(5.61478e-14 -6.26182e-14 -1.39503e-14)
(-1.50379e-14 1.10837e-14 3.4723e-15)
(8.3844e-17 2.25702e-15 2.08654e-15)
(1.35205e-14 -6.40428e-15 2.58253e-16)
(4.59859e-15 -2.84294e-15 1.42871e-15)
(2.36205e-14 8.42664e-15 1.66255e-16)
(1.14922e-14 -1.26707e-14 -2.43401e-14)
(2.98187e-15 7.22645e-15 1.59608e-15)
(-1.03283e-17 -2.85448e-16 -1.50428e-15)
(3.8563e-16 5.2959e-16 8.04728e-15)
(1.90876e-14 -6.74691e-15 -5.54966e-15)
(2.79793e-15 -8.57526e-15 3.17317e-14)
(-7.50575e-15 3.32376e-14 3.31093e-14)
(-5.23781e-14 1.10252e-14 -1.41169e-14)
(-7.15337e-14 3.58393e-14 -1.86015e-14)
(5.08231e-14 -5.25975e-15 2.36365e-14)
(-1.70669e-14 -4.526e-15 7.90113e-15)
(-3.29638e-14 -5.97263e-15 -1.8417e-14)
(9.16381e-16 7.04723e-15 -1.15066e-14)
(6.35433e-14 6.45156e-16 -2.78967e-14)
(-8.75089e-15 -1.7511e-14 1.39855e-14)
(3.38835e-34 -1.01224e-31 3.02621e-30)
(-2.08523e-14 1.25898e-14 2.43964e-14)
(-2.63392e-14 3.33805e-15 2.24538e-14)
(-2.9127e-14 -1.90194e-14 -2.27593e-16)
(-3.30424e-14 -3.42351e-15 2.4611e-15)
(2.76544e-14 -1.29971e-14 2.70792e-14)
(1.1522e-14 1.22718e-15 1.11975e-14)
(2.36041e-15 2.25149e-14 1.07478e-14)
(2.72313e-14 2.33935e-15 1.03343e-14)
(1.82922e-15 2.32247e-15 7.07642e-15)