/*--------------------------------*- C++ -*----------------------------------*\
| =========                 |                                                 |
| \\      /  F ield         | OpenFOAM: The Open Source CFD Toolbox           |
|  \\    /   O peration     | Version:  5.0                                   |
|   \\  /    A nd           | Web:      www.OpenFOAM.org                      |
|    \\/     M anipulation  |                                                 |
\*---------------------------------------------------------------------------*/
FoamFile
{
    version     2.0;
    format      ascii;
    class       volScalarField;
    location    "50.4676134421789371";
    object      GradTUMean;
}
// * * * * * * * * * * * * * * * * * * * * * * * * * * * * * * * * * * * * * //

dimensions      [0 -1 -1 1 0 0 0];

internalField   nonuniform List<scalar> 
60000
(
-26.123
18.0067
50.1518
55.6124
34.0981
4.79541
-14.2835
-30.3575
-55.9859
-76.3928
-74.7213
-50.5831
-25.4248
-19.8398
-29.4213
-38.5948
-44.7575
-59.4067
-84.9865
-120.938
-168.295
-221.893
-261.397
-298.653
-357.951
-420.268
-443.475
-391.097
-266.227
-145.113
-111.415
-140.883
-171.796
-165.096
-97.9757
-5.04296
12.3537
-35.3225
-66.4568
-59.9047
10.4044
8.32929
6.17003
3.20759
-0.956857
-2.71143
-0.841892
1.27552
3.93567
7.85829
9.9552
9.06558
5.69769
2.36317
2.8518
7.11077
9.92691
8.32519
4.28094
0.622607
-1.8723
-1.15219
1.77027
4.30617
5.80431
6.541
6.99487
7.69923
7.66752
5.25947
1.65892
0.286881
2.22855
6.72907
10.9355
8.92454
0.280911
-2.10219
4.61501
9.89995
6.16729
9.01865
9.36905
7.86079
0.413965
-9.12111
-12.2912
-10.7382
-10.7913
-7.56905
-1.90753
0.409159
-2.92634
-8.99094
-9.99621
-4.19197
-0.485848
-8.82696
-23.894
-34.727
-39.6473
-38.6641
-33.7889
-37.8589
-51.7106
-68.3293
-78.5972
-74.7014
-58.1277
-42.8907
-42.0093
-48.7705
-50.3296
-42.4049
-23.7865
-6.70652
-10.0548
-22.154
-17.6978
-2.78947
-3.01814
-1.78632
-2.39161
-2.33617
-2.15793
-3.58041
-5.35149
-5.6489
-5.82421
-5.8605
-3.94056
-2.47765
-3.53611
-5.63428
-5.84949
-3.60184
-1.73822
-3.93707
-9.63768
-14.1429
-14.6226
-13.0394
-9.72697
-9.68447
-14.1308
-19.7312
-23.4547
-23.4995
-19.9102
-16.9669
-17.2231
-19.7257
-22.0827
-22.4463
-18.4334
-11.4421
-8.32278
-9.90466
-10.8721
-7.27274
-0.416799
0.151169
0.154436
-0.059965
-0.0885935
-0.162389
-0.421185
-0.707732
-0.821558
-0.958568
-0.743732
-0.103191
0.224993
0.0762521
-0.112525
0.00804201
0.312935
0.376514
-0.504343
-1.61541
-1.65987
-1.43802
-0.520543
0.0920531
-0.537635
-1.09871
-1.22982
-1.06122
0.106294
1.22026
0.896176
-0.217394
-1.46318
-2.48624
-2.87184
-1.55455
-0.255545
-0.418921
-1.06036
-1.15097
-0.0701183
-0.000541009
0.0116696
-0.00119452
-0.0175805
-0.0216803
-0.0070853
-0.0231097
-0.0580323
-0.111513
-0.186209
-0.0728994
-0.0214667
-0.0963651
-0.14091
-0.20438
-0.102383
0.225356
0.319237
-0.265482
-0.124289
0.333113
0.205701
0.0232152
0.0981127
0.136976
0.0714748
-0.00184887
0.197625
0.865152
0.877685
0.277528
-0.00836603
-3.02711e-06
-0.143662
-0.271366
0.0314445
0.0538832
0.00684225
-0.0707512
0.0122595
0.0174316
0.00439853
-0.0254298
-0.0595687
-0.0988834
-0.0951475
-0.0415268
0.00662782
0.0223803
-0.0198731
-0.0344259
0.0396424
-0.0693141
-0.25864
-0.315119
-0.175266
0.0168424
0.296231
0.183504
-0.172573
0.399
0.499413
0.339792
0.289699
0.0701069
0.001354
-0.00800668
-0.00226383
0.108262
0.351378
0.139432
-0.252144
-0.249888
-0.0100623
0.0106716
0.0116499
0.0149172
-0.0339123
0.00803437
0.00691715
0.0146079
0.0223974
0.0141
-0.00525148
-0.0330705
-0.0671827
-0.0590452
-0.018414
0.00867755
0.00518916
-0.0174025
0.0205211
0.0070937
-0.0947374
-0.118901
-0.0542712
-0.00492539
0.107703
0.404101
0.0335681
0.129756
0.536878
0.459908
0.147805
0.00495325
-0.000172219
0.000291626
-0.00343893
-0.00157666
0.0345933
0.0914692
-0.00226101
-0.149262
-0.122756
-0.0154885
0.0105289
0.0235844
0.000914245
-0.00789241
-0.000406377
0.00395422
0.00761037
0.00647676
0.00180431
0.0013047
-0.00636899
-0.0169942
-0.0120708
0.00026563
0.00143667
-0.00981771
0.00651367
0.0130398
-0.0160807
-0.0132416
0.00298601
0.0192531
0.0100483
0.252718
0.27798
0.022826
0.324084
0.275852
0.0500897
-0.00233263
-0.0021648
0.000542289
0.0003369
-0.00066468
-0.000583222
0.00694609
0.0175037
0.000164463
-0.0323587
-0.0262184
-0.00341354
0.00495381
0.00586848
-0.000542525
-0.000584691
-0.000304387
0.00032112
0.000678768
0.000297138
0.000611218
0.00076036
-0.000263282
-0.00177756
0.00019217
0.00407869
-0.00188127
0.000768908
0.010262
0.00259625
0.000738235
0.000340951
0.00796294
0.00615967
0.0546319
0.210512
0.00599929
0.0857384
0.104345
0.0168742
-0.000749938
-0.000232741
7.38364e-05
-8.69574e-05
4.95363e-05
-0.000184014
-0.000197166
0.000882169
0.00215611
0.000348202
-0.00370758
-0.00321932
-0.000493665
0.000379114
8.32087e-05
-0.000300709
-0.000493301
-0.000362164
-1.59373e-05
0.000162769
8.22959e-05
0.000121846
2.88973e-05
8.714e-05
-0.000155519
0.00182892
0.00231474
-2.2599e-06
0.00448149
0.0050193
0.00108326
-0.000763165
0.00020857
0.00177905
0.00210054
0.0568299
0.00725642
-0.0117553
0.0140098
0.00220098
0.000249057
0.000146896
7.10166e-06
0.000113214
-8.52578e-06
-5.65364e-07
-1.40306e-05
-0.00011445
3.41001e-05
8.91799e-05
1.19337e-05
-0.000263761
-0.000314256
-0.000206716
-0.000128435
-1.10575e-05
-0.000241438
-0.000216599
2.17209e-06
2.05714e-05
7.25043e-06
-1.24113e-05
-1.82229e-05
1.89577e-05
-4.93614e-06
0.000207798
0.000960619
0.000171948
0.00104203
0.00231502
0.000799565
-0.000188896
-4.2441e-05
-0.000550232
6.01013e-05
0.00459033
0.00362033
-0.0138503
-0.00657859
-0.000442517
0.00026441
0.000305843
1.17428e-05
1.16161e-07
9.83878e-07
-1.08502e-06
-3.03862e-07
-3.49502e-07
-2.05968e-06
8.72728e-07
-2.95945e-07
-1.85543e-07
-5.21481e-06
-3.82857e-06
6.48093e-06
-2.28389e-06
-1.17958e-05
-1.16481e-05
5.20822e-07
3.0847e-07
3.77694e-08
3.63203e-08
-2.68235e-07
-1.06005e-06
8.95626e-07
1.61565e-06
0.000381251
2.77946e-05
0.000204679
0.000477843
0.000369864
1.87387e-05
7.88912e-06
-0.00022282
-0.000113003
0.000135166
0.000546997
-0.00294171
-0.00236077
6.61463e-05
0.000297654
5.9208e-06
3.22551e-08
-1.0718e-09
-6.56079e-09
9.1768e-09
7.64751e-09
-2.90562e-10
1.03034e-08
-5.08732e-09
-5.25599e-09
1.73299e-08
-1.59476e-07
2.69299e-08
-1.93492e-07
-4.47455e-09
-3.13451e-08
-3.24727e-08
1.58391e-08
2.50814e-09
1.24652e-10
-1.97306e-11
-2.30377e-10
1.11117e-08
-8.87702e-08
-2.06451e-06
1.18431e-05
1.23852e-05
8.61291e-06
2.31678e-05
3.3061e-06
-3.68565e-06
4.07868e-06
-7.5147e-06
-0.000132052
5.74684e-05
-4.2253e-05
-1.69571e-05
3.92283e-05
0.000137472
4.33409e-06
3.05383e-08
-7.74499e-10
4.03049e-11
4.05603e-11
-3.17971e-11
-4.1181e-11
7.59776e-12
-1.17888e-11
1.10077e-11
1.75228e-11
7.41249e-11
-4.54385e-10
-3.80169e-11
-1.90862e-09
-3.67931e-11
1.68433e-10
7.17808e-10
2.13012e-10
1.07148e-11
-2.13918e-13
3.27174e-13
-4.26728e-12
-5.01703e-12
2.95446e-10
4.64589e-09
6.03955e-09
-9.77855e-07
-2.8097e-07
1.26901e-07
1.22424e-08
-4.01351e-10
8.12451e-08
9.95251e-08
-1.88138e-07
-1.02777e-06
3.74644e-07
2.41064e-06
3.29551e-06
-2.46991e-08
-1.6437e-08
-7.81323e-11
-4.87736e-12
-1.6602e-12
-2.63344e-13
4.02645e-14
9.92767e-14
-2.97922e-15
-6.8691e-14
-1.15012e-14
-7.7942e-14
1.28707e-13
-6.75438e-13
-2.85674e-12
4.45347e-13
-1.64312e-13
3.15725e-13
4.27936e-12
1.32151e-12
8.51258e-14
5.72022e-16
-9.19507e-16
9.61928e-15
-8.6302e-14
-7.73041e-13
2.25067e-11
-5.49488e-10
-7.77414e-10
-9.29937e-09
-1.47512e-09
-1.194e-10
-5.48683e-12
-4.12385e-11
2.39917e-09
-3.05562e-09
1.40274e-09
5.1784e-10
-3.62086e-08
-4.79547e-08
-6.22525e-09
-1.76528e-10
3.34268e-12
5.74596e-13
3.33256e-14
9.23325e-15
4.08534e-15
1.40072e-15
1.19249e-15
-1.34712e-14
4.78618e-15
-7.64928e-15
-3.46002e-14
1.17214e-14
-3.40039e-14
1.36287e-14
-1.2979e-15
1.64615e-16
5.81269e-15
3.03942e-15
6.27978e-16
8.37182e-16
1.73925e-16
5.70584e-15
-1.46451e-15
-3.81952e-16
1.28145e-14
-1.13679e-12
5.76492e-12
-7.3483e-11
-2.8923e-11
-2.31089e-12
-3.13462e-14
9.02219e-14
-4.30591e-12
1.34168e-11
9.36467e-12
1.91884e-12
-1.30194e-10
-2.99331e-10
-3.89444e-11
-7.27812e-13
7.29229e-14
5.68508e-15
-7.467e-15
-1.07561e-15
7.02694e-15
-3.93256e-15
4.76428e-15
-1.30914e-14
1.38968e-15
2.27389e-15
-9.22527e-16
-5.40017e-15
-8.82918e-16
8.47833e-16
-2.78799e-15
-2.05382e-15
4.89198e-15
5.96313e-15
2.58972e-16
3.11803e-15
3.81126e-15
-2.3589e-15
1.72336e-15
-2.16512e-16
1.5736e-15
-3.4618e-15
1.14857e-14
-3.9841e-13
-2.32146e-13
-1.4772e-14
-4.85781e-16
8.78907e-16
-2.24778e-15
-1.13097e-14
-1.536e-14
2.06188e-16
-7.85845e-14
-1.19903e-13
8.51814e-14
1.438e-14
-3.3389e-15
-7.78508e-16
-9.1949e-15
-7.12515e-15
-9.62774e-15
1.53015e-15
4.35189e-15
2.5998e-14
1.39229e-14
-1.18503e-14
-1.71039e-15
-8.06909e-15
2.58517e-15
2.4482e-15
-9.21226e-15
-3.47546e-15
7.52959e-15
2.3444e-15
6.87235e-16
4.82624e-15
-1.19188e-15
4.30823e-15
2.4378e-16
4.12073e-16
1.5913e-15
-1.51561e-15
-1.02889e-15
-8.03572e-15
-2.95153e-15
2.04413e-15
5.26407e-16
-1.48749e-15
1.38492e-15
9.87627e-16
-1.39199e-15
-1.97197e-15
-1.05372e-15
8.07578e-15
1.11516e-14
-2.56295e-15
4.20794e-15
-3.08268e-16
8.50013e-15
8.26847e-15
-4.89984e-15
-1.79391e-15
2.19076e-15
-8.05019e-15
-1.90082e-15
-6.70513e-15
-8.70962e-15
3.23918e-15
-2.86144e-16
3.39566e-15
-2.22974e-15
-4.82958e-15
4.84195e-15
1.15465e-15
-3.64384e-15
-2.17234e-15
9.67695e-17
-1.24814e-15
3.3567e-15
-3.59425e-17
1.77937e-15
2.45321e-15
-7.53197e-16
9.08524e-16
4.54097e-15
5.7884e-15
2.37427e-15
-1.14475e-15
-1.82883e-15
1.29361e-15
1.37035e-15
-3.53237e-15
-2.24374e-15
-3.97219e-15
-5.00272e-15
8.20487e-16
8.70069e-15
5.97234e-16
2.90093e-16
-4.83679e-15
1.63143e-15
-5.23965e-16
-1.59764e-14
-2.17491e-15
4.42456e-15
2.1444e-15
-1.15358e-14
-4.83045e-15
3.6459e-15
6.69043e-17
-4.59512e-15
6.97713e-17
-1.94717e-15
6.35616e-17
6.13616e-15
-1.37812e-15
-1.28773e-15
2.92812e-16
1.4155e-15
-9.50984e-17
7.2857e-15
9.76681e-16
1.38358e-15
7.93151e-16
-5.49515e-16
2.55655e-15
-8.05219e-16
1.55429e-15
2.59666e-17
-1.34955e-16
-2.90589e-15
3.03276e-15
-2.54146e-15
-2.41189e-16
1.16034e-16
-2.05313e-15
-1.43495e-15
-7.23705e-16
9.73688e-16
-1.68205e-16
2.08798e-15
3.98341e-16
-4.27228e-15
1.72439e-15
1.14322e-14
-1.28353e-15
8.1242e-16
-3.86941e-15
1.85614e-15
1.11868e-15
-1.77603e-15
2.36829e-15
-2.46607e-15
9.14184e-16
-5.25758e-16
-2.53234e-16
2.08867e-15
2.37799e-16
1.80936e-16
1.14963e-15
1.5884e-16
-2.23749e-15
-1.33604e-15
1.99646e-16
2.44644e-16
1.25084e-15
-1.80906e-16
-2.36635e-15
-2.5409e-15
3.98601e-15
5.86172e-16
-1.60024e-15
1.96378e-15
-1.34551e-15
-4.63608e-15
-8.3879e-16
9.47162e-16
9.13984e-16
-1.14455e-15
2.8061e-15
-2.09061e-16
3.36149e-16
-3.84399e-15
-1.78636e-15
-7.21615e-15
-1.71958e-15
-1.50576e-15
-4.21843e-16
3.39095e-15
2.08546e-15
1.19663e-15
-1.31003e-16
1.70174e-17
4.7877e-17
-1.93711e-15
1.8701e-15
-7.2586e-16
-3.50681e-15
1.82903e-16
2.8237e-15
-1.59222e-15
8.91704e-16
1.82453e-16
1.03009e-15
1.42321e-15
-3.22758e-16
2.74798e-16
1.14364e-15
-4.55937e-16
-7.23222e-16
-3.04987e-18
-5.66135e-16
3.49873e-15
2.1848e-15
1.17803e-15
-4.37099e-16
-1.15203e-15
2.14515e-15
2.86221e-16
-1.45154e-15
1.28144e-16
-4.77855e-16
-4.39636e-15
-2.93554e-16
-2.29619e-15
-8.17968e-16
-2.39944e-15
2.20379e-15
4.38927e-16
1.10659e-15
-7.23366e-16
2.3715e-15
4.24638e-16
1.35785e-16
-3.31457e-16
-5.49357e-16
-3.731e-16
3.50703e-15
-5.53029e-16
-2.82146e-15
-5.26994e-16
3.76391e-15
-1.54502e-15
-1.18379e-15
-1.02002e-15
-1.67236e-15
4.44057e-17
-3.85305e-15
-2.321e-16
-5.78523e-16
-4.36904e-16
2.7652e-15
3.45872e-16
-1.85274e-15
2.41949e-17
4.55111e-15
-6.13133e-16
-9.5812e-16
-1.08891e-15
-2.63125e-16
-1.23877e-16
1.23613e-15
-2.26483e-15
2.09198e-15
1.07645e-15
4.99011e-16
-5.28727e-16
-8.32608e-16
-8.40628e-16
-1.42989e-15
-6.07729e-16
-1.71759e-15
-2.15416e-16
-8.12506e-16
-8.16991e-16
1.42256e-15
2.36773e-16
-2.17329e-15
1.38147e-15
1.55484e-15
-2.19634e-16
4.63894e-17
1.41816e-15
-5.57658e-16
-2.61147e-16
6.28507e-16
3.67512e-16
-4.17844e-17
-1.18875e-15
2.49093e-16
3.59297e-16
7.39605e-16
1.57977e-16
-8.28112e-16
1.01633e-15
-7.95484e-16
-9.9619e-17
-4.59566e-16
-9.84754e-16
7.08708e-16
8.67952e-16
7.46723e-16
1.07183e-16
1.21654e-15
1.5097e-15
-1.28953e-15
-9.19194e-16
-3.32277e-16
-1.43768e-16
4.08274e-17
-14.4932
-10.2858
-12.6826
-32.2802
-61.2678
-80.4563
-78.7978
-62.5681
-53.0699
-63.6001
-83.7352
-107.25
-135.095
-166.592
-198.021
-224.973
-244.248
-253.576
-248.042
-206.616
-150.229
-154.986
-209.198
-246.25
-268.838
-286.725
-281.665
-251.941
-231.517
-252.767
-305.841
-352.417
-352.583
-283.309
-129.932
92.7818
172.071
78.4381
11.5185
-11.2034
1.89164
1.24682
1.87233
3.38713
5.09369
7.53523
9.05359
7.46146
3.42385
1.28651
2.37614
3.66884
4.16514
5.02119
6.95405
8.94869
10.1458
10.7894
10.8384
7.98949
0.875755
-5.4152
-4.59593
2.0319
6.84251
8.29948
7.63617
5.96584
4.14668
2.72411
2.11766
2.64871
4.2947
7.63328
13.7105
12.8817
-8.50063
-19.5273
-10.0063
-0.0509474
1.72657
1.31392
-0.811002
-3.36909
-7.86868
-11.3399
-10.5008
-8.72913
-10.2313
-13.733
-13.8999
-12.9432
-14.7428
-17.4297
-19.3247
-23.3533
-32.0595
-42.1427
-48.2902
-47.2913
-49.1116
-60.9197
-61.612
-44.5674
-36.0506
-39.5565
-44.9293
-47.3647
-49.5468
-55.1269
-63.1325
-68.7992
-67.7549
-57.2219
-34.463
-2.18571
1.49991
-24.745
-23.3148
-6.79137
-1.29883
-0.135657
-0.908634
-1.6143
-2.45098
-3.92539
-5.24109
-5.24495
-4.60321
-4.97759
-5.46891
-4.79944
-4.42237
-4.44737
-4.3954
-5.41929
-8.62609
-12.5824
-15.5494
-17.0761
-18.4254
-21.575
-22.0949
-15.7706
-11.3466
-13.4044
-17.0362
-18.8531
-19.729
-20.8148
-22.0797
-23.2593
-23.8857
-23.1304
-19.9694
-13.9775
-7.37452
-8.18121
-9.56753
-5.56507
-0.418095
-0.0130556
0.065342
0.0433443
0.0492366
-0.02092
-0.261325
-0.513547
-0.411633
-0.290864
-0.384348
-0.33722
-0.109933
0.0481486
0.135116
0.0674216
-0.237621
-0.507048
-0.587203
-0.517182
-1.03556
-1.92527
-2.25391
-1.55068
-0.533189
-0.524029
-0.838616
-0.5641
-0.0703982
-0.0322801
-0.332411
-0.722655
-1.11879
-1.49187
-1.48668
-0.626752
-0.31075
-0.693484
-1.25342
-1.06594
0.0587828
0.0366097
-0.0358232
-0.05909
-0.0773785
-0.0554188
0.0143262
-0.0305351
-0.0898025
-0.00190045
0.0142499
0.0094641
-0.00504788
-0.0447735
-0.0632146
-0.0171122
0.0225196
0.0382646
0.0154997
0.295417
0.271039
-0.169509
0.166453
0.25611
0.0588417
0.00557926
-0.0619664
0.0313316
0.307662
0.347491
0.150417
0.0431014
0.00759623
-0.0156286
-0.0299146
0.0836063
0.114838
-0.0167024
0.0276958
-0.00433553
0.0996843
0.110813
0.0188485
-0.066495
-0.0980262
-0.0915808
-0.0396875
0.0281122
-0.0453476
-0.0133051
0.0411933
0.00255831
-0.0305816
-0.069326
-0.0590152
0.00798156
0.0296567
0.0364476
0.0257175
0.113732
0.276975
-0.0249836
0.16804
0.342803
0.242591
0.161893
0.0314623
-0.0123292
0.0417219
0.093248
0.0306314
-0.0601871
-0.0914165
-0.134589
-0.0434406
0.00758247
0.0374463
-0.110761
-0.0636536
0.0746941
0.0551704
0.0793934
0.0689111
0.00265306
-0.0348981
-0.0426548
-0.032036
0.0116675
0.021648
-0.0395647
0.0363291
0.0254771
-0.0313788
-0.0456564
-0.0163405
0.019378
0.00932471
0.00864868
0.0132112
0.0469658
0.139708
0.0511046
0.0616607
0.185175
0.177284
0.0766437
0.00769846
-0.00208665
0.00114113
0.00632225
0.0102553
0.00628078
0.0113756
-0.018804
-0.0583343
0.00592215
0.0218987
-0.0224408
-0.0984591
-0.0120241
0.0102105
0.0331664
0.0465364
0.0178281
-0.00832258
-0.0106146
-0.00908322
-0.003189
0.0195998
-0.000255851
-0.0042457
0.0394654
0.00533628
-0.0154265
0.00399973
0.0136812
0.000997767
0.00476669
0.00152981
0.0232588
0.0447708
0.0519811
0.0251363
0.0754169
0.0761347
0.0206153
0.000484508
-0.000203699
-7.82213e-05
6.0774e-06
4.27067e-05
6.76821e-05
0.00175941
0.00701537
-0.0106111
-0.00686157
0.0131108
0.00763805
-0.0316054
-0.0324816
-0.00354051
0.00804435
0.0165019
0.00642968
-0.00267741
-0.0014038
-8.95742e-05
-0.000515712
0.00257215
0.0108769
-0.0025387
0.0146153
0.0229129
0.0087575
0.00791208
0.00478921
-0.00115785
0.00306652
-9.54694e-06
0.00736004
0.00648838
0.0237731
0.00945311
0.0246804
0.0264368
0.00347707
-0.000589289
-0.000277563
-6.59433e-05
-1.54202e-05
3.52982e-06
7.6736e-05
-1.79132e-05
0.000442918
0.000172371
-0.00253337
0.00256326
0.00397774
-0.00287867
-0.012146
-0.00234369
-0.000414958
0.00230491
0.00128926
3.13617e-05
0.00027167
0.000325895
0.000736475
0.000129763
0.00269775
0.00272183
0.00211933
0.0123792
0.00874053
0.00272381
0.000182139
-0.000835928
0.000688635
8.08919e-05
0.00112817
-0.000772169
0.00466287
0.00289005
0.00436474
0.00366371
-0.000791032
-0.000427168
-8.98002e-05
-3.72312e-06
4.11679e-07
-8.36775e-06
-2.46895e-05
3.43039e-05
3.16142e-06
9.37138e-05
-0.000264735
1.42751e-05
0.000557216
0.000300274
-0.00150601
-0.000434531
-0.000960025
-0.000591239
6.4507e-05
0.000268514
0.000113192
9.52915e-05
5.10638e-05
0.000263218
5.65172e-05
0.000692072
0.000166785
0.00222075
0.00219907
0.000455739
2.22484e-05
-0.000109863
3.82935e-07
4.75413e-05
-0.000202739
-0.000382163
0.000154724
0.00104409
-0.0017594
-0.00148507
-0.000447086
-1.01136e-05
4.66951e-06
4.59816e-07
6.78733e-08
1.64677e-07
-2.41868e-06
-4.42036e-06
3.74889e-06
1.08445e-05
-4.35814e-06
-0.00016367
1.45837e-05
-1.77137e-05
5.8548e-05
-7.78067e-06
-0.000748504
-0.000708151
-1.82858e-05
3.9393e-05
1.4148e-05
1.79443e-06
7.5363e-06
7.76168e-06
-2.98479e-06
-8.78866e-07
1.05839e-05
9.91385e-05
0.000440852
0.000209392
2.76903e-06
-8.9829e-07
-1.04323e-06
6.50005e-05
-1.99367e-05
-7.60361e-05
3.58589e-05
0.000319764
-0.000863957
-0.000400382
9.92691e-05
1.09703e-05
-9.96565e-08
-1.44171e-08
-1.26463e-11
-1.38289e-09
2.04817e-08
6.73093e-08
-9.37834e-08
-8.12342e-09
1.22857e-06
2.44765e-07
1.06389e-06
-3.32927e-06
-1.14605e-05
-2.20064e-06
-2.51558e-05
-3.01003e-05
-8.51854e-07
5.40117e-07
8.26276e-08
1.80703e-08
-2.72815e-08
-2.37561e-07
-2.25118e-08
-5.20352e-08
1.8585e-06
5.53133e-06
8.70014e-06
1.69218e-06
2.7076e-07
-8.7413e-09
-2.67984e-07
1.46575e-07
-9.64528e-07
2.85416e-06
4.55362e-05
9.40695e-06
-2.61462e-05
6.64357e-05
5.13992e-06
-4.54664e-07
-3.2065e-08
-9.10637e-10
-5.54536e-12
8.11072e-12
-8.59103e-11
-5.47765e-10
1.04773e-09
-9.65369e-10
-1.8136e-09
2.88017e-10
-5.93458e-09
6.50232e-08
7.57159e-07
5.56754e-10
-6.20444e-08
-9.32756e-08
1.16603e-08
3.21635e-09
1.78256e-10
-4.37555e-11
-1.35607e-10
3.19349e-09
1.40823e-09
-1.40914e-10
6.29498e-09
4.86688e-08
3.90332e-08
8.29396e-09
5.54262e-10
-2.35885e-10
4.81455e-09
-5.02474e-09
4.64997e-08
-1.10829e-06
2.88226e-07
3.4224e-07
1.66647e-06
-1.49606e-06
-3.16564e-07
-1.56055e-08
-2.53121e-10
5.69757e-12
3.99514e-13
-4.65434e-14
9.78762e-14
1.48659e-12
-5.20386e-12
7.28715e-12
-4.09268e-13
3.89505e-12
-7.7136e-11
7.94376e-10
-9.50061e-10
-1.2568e-11
1.66158e-10
4.13322e-10
8.49123e-11
4.10867e-12
1.18877e-13
8.89674e-14
5.37263e-14
-6.38623e-12
-5.49645e-12
2.07411e-13
-5.95935e-12
3.15838e-10
1.10599e-10
-1.44236e-11
-4.71487e-12
2.51015e-12
-2.75573e-11
-2.45471e-11
3.07069e-10
3.9253e-09
5.1521e-10
-1.84217e-08
-1.04867e-07
-5.11569e-08
-3.90074e-09
-7.81455e-11
3.78298e-12
3.78558e-13
-4.85295e-15
6.70451e-15
-5.6137e-16
2.73605e-15
-1.49838e-14
-4.04681e-14
3.17299e-15
8.63681e-15
-4.29737e-13
4.34998e-12
-1.03574e-11
-2.11247e-13
2.63684e-13
1.11929e-12
2.0379e-13
1.19598e-14
1.49325e-15
-1.05496e-15
1.74314e-15
-1.32861e-15
8.84038e-15
7.96143e-16
-2.01738e-14
9.62839e-13
-5.72741e-13
-7.52886e-13
-8.77229e-14
-5.94859e-15
-9.94118e-15
6.06208e-13
-4.46417e-12
2.07381e-12
1.94313e-12
-1.09585e-10
-1.19031e-09
-3.60878e-10
-1.34141e-11
9.46923e-13
9.23251e-14
2.22108e-15
-3.03368e-15
-2.46248e-15
5.86718e-15
1.94618e-15
-2.92718e-15
1.45945e-14
-2.44801e-14
-2.1422e-15
-1.99027e-15
3.10809e-14
-8.97189e-14
-8.32306e-15
4.85418e-15
-1.10941e-15
7.88931e-15
-1.47801e-16
4.98484e-15
-7.05268e-17
-9.32799e-16
4.31379e-16
-2.53011e-16
-3.65346e-15
2.50674e-15
-1.60989e-14
-1.83258e-14
-3.81302e-15
-2.81923e-15
3.03404e-15
-8.35266e-15
-3.83807e-15
3.36967e-15
1.39579e-14
1.48532e-14
-1.73426e-13
-4.03514e-12
-8.18217e-14
2.08766e-13
2.23714e-14
1.34016e-15
2.51562e-17
-2.87791e-15
6.73391e-15
-1.80682e-16
3.74671e-15
-1.24666e-15
6.99728e-15
-7.90329e-15
-8.61719e-15
-1.01593e-16
6.07189e-15
1.16771e-14
3.24407e-15
-2.84572e-15
5.55644e-15
9.93267e-15
1.68728e-15
-1.61326e-15
-2.60997e-15
2.13592e-16
-1.39351e-15
1.77288e-15
-5.93907e-16
-7.68597e-15
5.52684e-15
-9.86527e-16
3.16879e-15
2.87996e-15
-9.10073e-16
1.32184e-15
6.99316e-16
3.94065e-16
2.58419e-15
-3.34166e-15
-5.12778e-16
1.03706e-14
2.65869e-14
-1.56429e-14
3.58449e-15
-1.92769e-15
3.58037e-15
-1.6618e-14
6.2106e-15
8.87317e-16
-8.6467e-15
-5.35634e-15
7.11355e-15
1.56144e-14
-1.05236e-14
-8.08908e-16
-7.09519e-16
2.02452e-15
1.49601e-15
-4.86778e-15
-4.18477e-15
1.43476e-15
1.95567e-15
-2.78736e-15
5.12616e-16
-9.6173e-16
1.69566e-15
7.86955e-17
2.52078e-15
-3.111e-15
7.1411e-15
-8.40039e-16
-9.40054e-15
8.28415e-15
2.38254e-15
2.38496e-16
4.57927e-16
-5.22986e-16
-3.78507e-16
1.32485e-15
-4.95124e-15
6.88785e-15
1.01569e-14
-2.7435e-15
-1.45465e-15
-1.80626e-15
5.72839e-16
-4.27972e-16
-6.22967e-15
1.69515e-15
-1.753e-15
2.04273e-15
3.82846e-15
3.25868e-15
4.87101e-15
-3.28389e-15
2.86962e-16
1.34646e-15
1.78193e-16
-4.49767e-15
7.50702e-16
2.21026e-15
1.77699e-15
7.38756e-16
1.96628e-16
2.16509e-15
1.78225e-15
1.53134e-15
1.0176e-15
1.74725e-16
2.96108e-15
-2.22379e-15
1.643e-15
-6.66721e-16
1.45714e-15
-2.96347e-16
6.87872e-16
3.20467e-15
2.65994e-15
-3.71853e-15
3.06881e-15
-6.25019e-16
-1.71532e-15
-1.43715e-15
2.53381e-15
3.74063e-15
-2.47414e-15
-4.84533e-15
5.78052e-16
-4.65757e-15
-4.00987e-15
8.19215e-16
7.94379e-15
-1.87576e-16
6.59945e-16
-9.50914e-17
-5.42704e-15
-7.01209e-15
-8.73144e-16
8.98993e-16
2.07235e-15
-4.38785e-16
-1.7129e-16
6.55855e-16
-3.42224e-15
4.60382e-15
-1.02105e-15
3.91395e-17
8.17408e-16
1.71408e-15
-3.58697e-16
-5.36959e-16
-1.95433e-15
-1.07278e-15
-5.35075e-17
9.295e-16
-1.18561e-16
4.4396e-16
1.08636e-15
-6.63301e-16
-9.84354e-16
6.24021e-15
7.25466e-15
1.04555e-15
2.99263e-15
-9.23097e-16
-2.28112e-16
-1.5072e-15
-8.22654e-16
-3.32357e-15
5.00425e-16
3.48244e-15
5.71503e-15
1.55387e-15
-5.58649e-16
7.65876e-16
6.35106e-16
3.34339e-15
8.56856e-16
1.24123e-15
1.09387e-15
1.27235e-15
3.47096e-15
-3.53082e-15
1.00623e-15
-5.03754e-15
-1.62533e-15
5.77747e-18
-4.05425e-15
-1.11242e-15
3.06734e-15
-1.20263e-15
2.21501e-16
7.21505e-15
3.3753e-16
-4.13372e-15
-4.13474e-16
-1.14098e-15
1.84231e-15
-2.52705e-15
9.34124e-16
-4.0393e-18
-5.60723e-16
4.56843e-16
-1.42736e-15
1.71701e-15
2.24185e-16
1.24826e-15
1.25173e-15
-2.24509e-16
-3.58326e-15
-4.38526e-15
-2.3094e-15
2.40887e-16
-1.62256e-15
1.03912e-15
-1.89001e-15
-1.63676e-15
-2.36746e-15
-1.48342e-15
1.5808e-15
-4.4735e-16
-2.41364e-15
1.77739e-15
-3.03427e-15
-3.33533e-15
6.31631e-16
-9.58887e-17
8.67792e-17
1.61489e-15
2.22644e-15
-1.6041e-15
3.75005e-16
-1.661e-17
1.89868e-15
2.55786e-15
-1.34757e-15
3.9455e-17
9.27164e-16
-1.90304e-15
3.53493e-16
-6.48463e-16
3.87655e-15
-2.79943e-15
-4.29303e-15
2.01653e-15
1.08804e-15
-4.43357e-16
7.08299e-16
5.10563e-18
-3.84291e-18
-1.87391e-15
3.56815e-16
4.88222e-16
-8.24003e-16
-3.29884e-16
1.4983e-15
-7.21903e-16
-3.64504e-16
-5.09923e-16
-2.68922e-15
-1.75359e-15
-2.04785e-16
-2.27706e-16
7.55048e-16
7.83961e-16
1.54143e-15
4.18464e-16
-9.60884e-16
2.26878e-15
-2.81957e-15
-2.88123e-15
-8.04975e-17
-2.69298e-16
6.60307e-16
-7.66072e-16
-8.14183e-16
-2.18287e-15
-6.97683e-16
1.4939e-15
-5.73205e-16
-3.66742e-16
-8.08789e-16
-9.46048e-16
-1.07585e-15
5.67455e-16
1.38311e-15
-1.6279e-15
2.13003e-16
7.98818e-16
6.17319e-16
-3.54684e-17
6.41726e-16
-6.69307e-16
-6.99672e-16
4.8192e-16
1.0032e-15
-6.98678e-16
-33.6246
-20.3579
-28.2328
-59.3909
-91.4938
-108.028
-108.97
-100.114
-92.7801
-97.7104
-120.341
-156.045
-196.365
-233.546
-264.102
-287.451
-309.989
-337.551
-358.072
-323.53
-199.45
-70.725
-51.7251
-92.0587
-110.385
-110.23
-113.45
-137.362
-191.311
-264.859
-329.857
-349.873
-297.516
-182.535
-46.3468
68.8399
101.643
53.9053
-2.94135
-34.3852
0.123014
1.19904
2.82685
4.54865
5.94555
6.90546
7.47718
7.80026
7.58715
6.42409
4.99054
4.39111
4.70213
5.28128
5.59594
5.32672
4.95706
5.57512
7.61771
10.0382
9.30974
1.81028
-5.5072
-2.10913
6.05119
8.52629
7.02428
4.99416
3.8752
3.81955
4.65965
6.23031
8.224
9.85947
10.0926
5.91864
-5.29968
-12.2036
-8.81929
-2.68581
-5.64064
-2.83171
-5.14259
-8.12685
-9.97842
-10.2361
-9.31882
-7.26148
-5.95926
-8.14481
-14.0115
-20.154
-24.2273
-27.7668
-33.8828
-44.0507
-56.5695
-66.5421
-68.3923
-57.3049
-37.843
-32.0205
-45.0406
-41.6053
-19.192
-8.49265
-12.8041
-24.3542
-37.7016
-49.11
-56.3396
-57.4698
-50.9788
-38.6978
-24.7796
-12.6864
-13.0446
-25.8222
-29.2764
-17.2097
-3.69021
-1.57851
-2.45841
-3.58732
-4.14103
-4.33265
-4.20162
-3.90003
-3.905
-4.73071
-6.14933
-7.57013
-8.20058
-8.48713
-9.96527
-13.5552
-18.373
-22.0284
-22.4545
-19.1774
-14.9059
-14.6787
-19.4405
-19.8607
-12.0216
-6.92527
-8.66089
-13.3183
-17.577
-20.0089
-20.8308
-20.5162
-19.2327
-17.5611
-16.2881
-14.6981
-11.7075
-10.7264
-11.5698
-8.69638
-0.793517
-0.238814
-0.13524
-0.226981
-0.252395
-0.236515
-0.179447
-0.0384463
0.139806
0.145506
-0.0725977
-0.309779
-0.413348
-0.41685
-0.543091
-0.94233
-1.4235
-1.59181
-1.44272
-0.750755
0.235327
0.0168577
-1.54814
-2.55305
-1.75621
-0.323551
0.0892287
-0.367617
-0.941911
-1.25366
-1.28186
-1.08422
-0.691079
-0.341201
-0.246406
-0.444884
-0.767436
-1.06441
-1.59957
-1.77532
-0.143264
0.0732541
-0.00576727
-0.0104534
-0.0023468
-0.00135733
0.00202751
0.0239137
0.056803
0.0640363
0.0268639
0.00499743
0.00987125
0.0103078
0.0133934
0.0254371
0.0150058
0.0378739
0.0304889
-0.0270764
0.262741
0.305984
-0.0787729
0.050274
-0.00310658
-0.039978
0.0674516
0.106176
0.0601326
0.00484901
-0.00953519
0.0216159
0.118714
0.197468
0.204055
0.140162
0.0546252
0.0159494
-0.0953985
-0.445697
-0.117915
0.17686
0.0361033
-0.0505459
-0.0409742
-0.0250862
-0.0101594
0.0195017
0.0409277
0.0120102
-0.0521565
-0.0993047
-0.0807346
-0.0121259
0.0763667
0.123777
0.0616208
0.00221971
0.00784972
0.0151634
-0.066472
-0.0468227
-0.0536891
0.0753416
0.129921
0.0337322
0.00239311
-0.00472308
-0.0445234
-0.0935498
-0.106764
-0.080327
-0.0146244
0.0517073
0.06675
0.0191266
-0.0642164
-0.0742045
-0.00931269
-0.0754798
-0.0576813
0.110308
0.0983448
-0.0187155
-0.0392764
-0.0277211
-0.0118538
0.0116438
0.0439761
0.0453106
0.00531096
-0.0559676
-0.102922
-0.0662965
0.0180307
0.0495646
0.0201435
-0.00351787
0.000563974
0.0148421
0.00461943
-0.0748481
-0.033436
0.00746486
0.036219
0.0413317
0.0201179
0.00551413
-0.00884579
-0.0178462
-0.0173542
-0.0140386
-0.00389674
0.0123216
0.03104
0.0325188
-0.00566231
-0.0493052
-0.0343274
-0.00021999
-0.0111908
0.0377904
0.083614
0.0176085
-0.0151145
-0.0194617
-0.0125743
-0.00481176
0.0108754
0.0266258
0.0194944
-0.0030769
-0.0344969
-0.0337813
-0.0053429
0.00464162
-0.000249633
-0.00307967
0.000197475
0.000902737
0.0133803
-0.0116943
-0.00986991
0.00630937
0.0140828
0.0194812
0.00997441
0.00314301
-0.000124066
-0.0012021
-0.00081059
-0.000311953
8.54666e-05
0.000397834
0.00181212
0.0100359
0.00804004
-0.00761798
-0.0138249
0.00445998
0.00115227
0.0107809
0.0383086
0.0145324
-0.00500412
-0.0114866
-0.00970997
-0.00429132
0.00044554
0.00530625
0.0085126
0.00365877
-0.00293863
-0.00225039
0.000435651
-0.000704009
-0.0016323
-0.00159472
-5.94464e-05
-0.000178231
0.00336311
-0.000966996
-0.000680177
0.00258479
0.00621214
0.00725327
0.00361096
0.000657035
-0.000464099
-0.000414878
-7.86951e-05
-4.93256e-05
1.05551e-05
-7.35418e-06
-8.97594e-05
0.000411062
0.00122547
-0.000380913
-0.00168563
0.00552871
0.00163475
0.00173574
0.00964753
0.00453115
-0.000352518
-0.00102653
-0.000446416
0.00096544
0.000851734
0.000423667
0.00094889
0.00113455
0.000146471
0.000456173
0.00035506
-9.84793e-05
-0.000425688
-0.000335198
7.85783e-07
-4.34443e-06
0.000653912
-3.95689e-05
0.000843781
0.000496257
0.000786754
0.00190431
0.000784682
-0.000192847
-0.000431368
-0.000180683
1.22709e-05
2.4276e-05
1.48734e-05
4.55967e-06
2.70542e-06
9.3761e-06
4.25285e-05
-6.40396e-05
4.93152e-06
0.00318114
0.000964149
-0.000769381
0.000278617
0.000645679
0.000370339
0.00052878
0.000803296
0.000982326
0.000559654
0.000232067
0.000174398
0.000166839
0.000196277
2.68866e-05
0.000109496
6.69732e-08
-1.47484e-06
-2.54901e-06
-1.62986e-05
-1.19708e-05
0.000137566
7.27358e-05
0.000698732
-0.000184224
-0.000481004
0.000292509
0.000119482
-0.000108021
-0.000147813
-6.3817e-06
-3.58123e-08
-3.5956e-07
-2.41913e-07
-1.37287e-06
7.77114e-06
1.44061e-06
1.60215e-05
-1.63715e-05
-8.49909e-06
0.0010689
0.000746445
-0.000365057
-0.000676064
-1.53189e-05
0.000127681
7.16296e-05
0.000178195
3.55827e-05
4.65563e-05
2.76781e-05
8.25565e-06
4.79014e-06
-4.81314e-07
2.8529e-07
9.5312e-07
1.29006e-06
1.84689e-07
-1.76165e-07
-1.94619e-08
1.17312e-06
-6.06624e-06
5.57055e-05
0.000225378
-1.29744e-05
3.65964e-05
0.000114057
3.70464e-05
-1.94637e-05
-1.91242e-06
-2.75246e-08
1.01422e-09
4.03059e-09
2.45851e-09
4.68805e-08
-2.22983e-07
-1.23353e-07
-2.8551e-08
-5.07967e-07
-1.23985e-06
0.000169994
2.06886e-05
-0.000102715
-0.000135369
-9.12368e-06
1.09265e-05
7.11762e-06
9.73792e-07
-4.17031e-09
1.00012e-07
3.75963e-08
2.10171e-08
7.0013e-08
5.06017e-08
-8.98518e-09
5.15693e-09
3.13872e-09
-8.34347e-11
-2.1073e-09
2.33605e-09
-4.6077e-08
-1.58469e-07
6.82335e-07
-1.88156e-06
5.15596e-06
1.93508e-05
-2.49095e-06
-4.07895e-06
-3.99458e-07
-1.37391e-08
-2.17194e-10
-3.45676e-12
-1.89868e-11
-1.55318e-11
-7.63887e-10
3.21279e-09
-2.05118e-09
-1.31234e-09
3.63266e-08
-2.52103e-07
1.76972e-06
-1.36071e-06
-1.1207e-05
-5.66993e-06
-5.04674e-08
7.45173e-08
2.70495e-08
2.33502e-09
-4.37899e-11
1.31939e-10
4.9583e-12
-3.2425e-12
1.64108e-10
6.35112e-10
1.84762e-11
1.57932e-11
4.24648e-12
2.22735e-14
-8.37997e-12
-2.37264e-11
1.9833e-10
6.25956e-09
-2.39147e-09
1.47539e-07
1.47646e-06
-9.7885e-07
-4.40728e-07
-5.50646e-08
-2.03365e-09
-3.01191e-12
6.68506e-13
3.32964e-14
-1.6761e-13
1.27837e-13
5.70226e-12
-2.70207e-11
1.57587e-11
-1.08615e-11
7.07252e-10
-8.92503e-09
5.08627e-08
-4.68008e-09
-3.30335e-08
-1.43637e-08
-1.11823e-10
9.20847e-11
9.97816e-12
-1.04027e-12
1.76496e-14