/*--------------------------------*- C++ -*----------------------------------*\
| =========                 |                                                 |
| \\      /  F ield         | OpenFOAM: The Open Source CFD Toolbox           |
|  \\    /   O peration     | Version:  5.0                                   |
|   \\  /    A nd           | Web:      www.OpenFOAM.org                      |
|    \\/     M anipulation  |                                                 |
\*---------------------------------------------------------------------------*/
FoamFile
{
    version     2.0;
    format      ascii;
    class       volScalarField;
    location    "50.4676134421789371";
    object      GradTU;
}
// * * * * * * * * * * * * * * * * * * * * * * * * * * * * * * * * * * * * * //

dimensions      [0 -1 -1 1 0 0 0];

internalField   nonuniform List<scalar> 
60000
(
-66.0442
11.4723
74.506
92.8286
60.41
8.90778
-27.07
-56.1787
-101.503
-140.238
-142.574
-104.266
-58.2234
-43.0796
-57.9462
-76.1954
-89.1605
-114.014
-153.622
-207.06
-277.165
-360.271
-422.183
-478.466
-564.504
-656.055
-697.544
-639.351
-470.369
-277.91
-203.402
-239.871
-289.998
-289.202
-194.198
-37.4953
12.3186
-62.8076
-122.427
-118.896
13.3554
10.6487
7.86965
4.38332
-1.05446
-3.74905
-1.22616
2.04524
5.80312
10.9179
13.1512
11.6598
7.64348
3.55479
3.9795
9.65511
13.5951
10.9776
5.39606
1.69674
0.199686
1.23687
3.40305
4.69474
5.31253
5.60638
5.23476
4.277
3.41694
2.69134
1.43816
0.687491
1.98465
5.67348
9.93324
9.42054
0.771257
-2.71532
5.44535
12.5912
8.9899
13.9848
14.3137
12.3837
0.39812
-16.6877
-23.3888
-20.8277
-20.7635
-14.9864
-4.17157
0.286456
-5.89014
-17.4347
-20.089
-9.38945
-0.996911
-14.3443
-41.2661
-61.5775
-70.1378
-67.5462
-55.5037
-57.4043
-76.172
-99.9182
-115.157
-111.429
-90.7751
-71.5543
-71.8519
-83.2563
-85.7105
-72.9188
-43.0812
-15.1488
-20.1258
-41.8489
-35.1002
-7.77522
-6.58168
-3.58094
-4.75312
-4.976
-4.68287
-7.41374
-11.0606
-11.9289
-12.3626
-12.6264
-8.78584
-5.40683
-7.25185
-11.7045
-12.5804
-8.07519
-3.77372
-7.52973
-19.127
-29.4635
-31.5019
-28.6634
-21.6907
-20.6984
-29.3812
-41.099
-49.0033
-49.1558
-41.2983
-34.4747
-34.8082
-40.0305
-45.0309
-46.0677
-38.3084
-23.9136
-17.1908
-20.3567
-22.6876
-15.7302
-1.06829
0.291689
0.370553
-0.138773
-0.239333
-0.394703
-0.935021
-1.56076
-1.84255
-2.16652
-1.7792
-0.352267
0.465736
0.147525
-0.31288
-0.035606
0.659343
0.854116
-0.901893
-3.54263
-3.98935
-3.55372
-1.58979
-0.00292266
-1.30993
-2.74795
-3.09161
-2.81486
-0.469351
2.22421
1.86815
-0.495368
-3.23654
-5.50502
-6.46749
-3.78368
-0.750729
-0.952412
-2.34906
-2.63758
-0.173548
-0.0028121
0.0581028
0.0353986
-0.00326209
-0.0212178
-0.00909748
-0.0489157
-0.126143
-0.236886
-0.403966
-0.192889
-0.0159145
-0.127291
-0.210224
-0.34656
-0.201066
0.400459
0.662755
-0.433551
-0.410514
0.513659
0.374724
0.0579412
0.140022
0.245454
0.144318
-0.00308131
0.284411
1.59164
1.87141
0.747666
0.0649659
-0.0189428
-0.320021
-0.626507
0.0168623
0.13436
0.0145425
-0.154813
0.0210705
0.0285691
0.012419
-0.0413773
-0.105012
-0.180327
-0.181976
-0.0863845
0.00834356
0.0434449
-0.034083
-0.0862425
0.0707322
-0.097625
-0.465636
-0.611451
-0.365429
0.00145944
0.526762
0.449422
-0.358151
0.653351
0.985402
0.6512
0.584412
0.160747
0.00511545
-0.0161078
-0.00698819
0.169633
0.666508
0.35916
-0.427117
-0.504739
-0.0504676
0.0198775
0.00860588
0.0414752
-0.0617715
0.0119156
0.0126047
0.0257928
0.0415131
0.0289432
-0.0071281
-0.0584635
-0.126671
-0.116938
-0.0403522
0.014861
0.0135307
-0.0361459
0.0301745
0.027708
-0.168886
-0.236679
-0.116731
-0.0120466
0.160442
0.775523
0.144423
0.157663
1.00191
0.931899
0.328191
0.0168586
-0.00202311
0.00170956
-0.00724691
-0.00397281
0.0556136
0.178272
0.0283881
-0.273824
-0.254872
-0.0420431
0.0182462
0.0457342
0.00710315
-0.0159665
-0.00131302
0.00731679
0.0142273
0.0130462
0.00390294
0.00270801
-0.0110559
-0.0324922
-0.0237663
-0.00042374
0.00403979
-0.0180342
0.00753856
0.0291209
-0.0277248
-0.0281897
0.00355729
0.0385573
0.0126305
0.425839
0.600448
0.0261943
0.574974
0.574464
0.118662
-0.00305884
-0.00463791
0.000806908
0.000804532
-0.00111107
-0.00151286
0.0116371
0.0342856
0.00725763
-0.0600544
-0.0547353
-0.00904477
0.00891019
0.0118171
-0.000173973
-0.0010591
-0.000902096
0.000363176
0.00139668
0.000474121
0.000932522
0.00140747
-0.000266492
-0.00366259
0.000399439
0.00787602
-0.00236597
-0.000314258
0.0204099
0.00628813
0.00163775
0.00028729
0.0147719
0.0144987
0.0764222
0.410189
0.0361207
0.132335
0.215676
0.0414139
-0.00103382
-0.000566779
0.000132341
-0.000182962
0.000118502
-0.000297726
-0.000470183
0.00142747
0.00431087
0.00143728
-0.00692851
-0.00677236
-0.00113541
0.000638957
0.000221438
-0.000789194
-0.000923079
-0.000609481
-0.000127136
0.000396876
0.000128379
0.000243621
1.29254e-05
0.000292854
-0.000532272
0.00317375
0.00470648
-6.31139e-05
0.00714391
0.00964944
0.00235471
-0.00159661
0.000319304
0.00309875
0.00169509
0.0993116
0.0316043
-0.0323717
0.0277206
0.0054049
0.000486971
0.000433856
-1.63471e-06
0.000336397
-5.15366e-06
-2.61051e-06
-7.75933e-06
-0.000323487
9.1958e-06
0.000212106
3.38496e-05
-0.000570262
-0.000556562
-0.000554973
-0.000379506
-6.47301e-06
-0.000599519
-0.000556344
-6.01828e-06
2.64347e-05
8.97483e-06
-1.2767e-05
-2.01867e-05
2.5507e-05
9.60273e-07
0.000325929
0.00133893
0.000505276
0.00148987
0.00523174
0.00185555
-0.000409482
-0.00011201
-0.000913469
9.90198e-05
0.00701546
0.0102868
-0.0262887
-0.0147565
-0.00116653
0.000312603
0.000898241
2.88741e-05
-1.74607e-06
9.34281e-07
-1.30842e-06
-4.26867e-07
2.72972e-07
-2.31247e-06
4.55676e-07
-8.27409e-08
2.20095e-07
-6.00363e-06
-5.07682e-06
6.5631e-06
-1.73999e-06
-1.46004e-05
-1.85642e-05
5.47939e-08
3.3912e-07
4.63243e-08
3.24228e-08
-3.29241e-07
-1.11406e-06
2.0111e-06
-8.74537e-06
0.00104519
7.7835e-05
0.000461185
0.00131998
0.00111201
3.88324e-05
-1.84961e-06
-0.000481418
-0.000316811
0.000399513
0.00129432
-0.00505269
-0.00498621
-4.01436e-05
0.000853792
2.10485e-05
2.22035e-07
8.53736e-09
-3.93448e-09
8.38394e-09
5.65605e-09
1.74184e-09
7.45479e-09
-1.4844e-09
-5.87009e-09
1.71539e-08
-1.7676e-07
1.96189e-08
-2.5494e-07
-3.51894e-09
-3.08202e-08
-5.26246e-08
1.40509e-08
2.72304e-09
1.46383e-10
-1.13989e-11
-7.07458e-11
8.58033e-09
-9.61572e-08
-1.51297e-06
1.32105e-05
1.64364e-05
5.12219e-06
2.90732e-05
7.04634e-06
-5.57327e-06
3.24401e-06
4.50049e-06
-0.000391362
0.000151908
-0.000106181
-2.28194e-05
4.3477e-05
0.000391509
1.25619e-05
9.3239e-08
-1.89968e-09
4.35399e-11
2.88651e-11
-2.37023e-11
-2.09818e-11
-1.72504e-11
1.27379e-12
1.19132e-14
2.41762e-11
4.66296e-11
-3.6115e-10
-1.0403e-10
-1.71879e-09
-1.71282e-11
7.36358e-11
6.82417e-10
2.22049e-10
1.30517e-11
-4.61439e-14
1.80368e-13
-3.36965e-12
4.448e-12
4.80998e-10
-2.70493e-09
-2.16382e-08
-8.85997e-07
-4.78493e-07
1.14537e-07
2.13914e-08
-3.2985e-10
5.61131e-08
1.14571e-07
1.33114e-07
-2.01841e-06
1.04273e-06
1.73647e-06
4.84283e-06
3.87507e-08
-3.72602e-08
-1.36626e-10
-1.33387e-11
-3.45659e-12
-2.9066e-13
1.96453e-14
5.85037e-14
4.44867e-14
-2.71958e-14
1.48508e-14
-1.12893e-13
4.33254e-14
-3.77261e-13
-2.36203e-12
1.34559e-12
-6.9106e-15
-9.31208e-14
3.35462e-12
1.24434e-12
8.32368e-14
1.03126e-15
-1.33661e-15
1.32805e-14
-8.2617e-14
-4.82336e-13
9.22858e-12
-1.60978e-10
2.17488e-10
-6.5259e-09
-1.18406e-09
-1.26375e-10
3.89737e-12
-2.96983e-11
8.37789e-10
2.69077e-09
1.16104e-09
-2.78788e-09
-2.08384e-08
-5.61797e-08
-1.19839e-08
-3.75981e-10
2.94117e-12
9.16627e-13
6.58097e-14
4.90783e-14
1.28121e-14
-7.24381e-16
1.2024e-14
9.56174e-15
7.32088e-15
1.1406e-14
-2.90664e-14
5.25605e-15
-4.87599e-15
2.46393e-14
8.21581e-16
-7.18888e-16
5.14985e-15
-7.35845e-15
5.36261e-15
9.11739e-15
2.4592e-15
8.49993e-16
9.53005e-16
1.61147e-15
-1.48929e-14
-1.71879e-13
2.77526e-12
-3.17568e-11
-1.79005e-11
-2.1185e-12
-7.76683e-15
-4.36347e-14
-5.28213e-13
-8.18186e-12
1.86609e-11
2.00626e-13
-3.90579e-11
-2.882e-10
-6.1411e-11
-1.63699e-12
7.77011e-14
1.95124e-14
9.847e-15
-1.61089e-14
9.678e-15
-3.95868e-15
6.49313e-15
-2.36051e-14
2.01241e-14
7.56358e-15
1.33884e-15
-1.32396e-14
-9.19823e-15
2.05951e-15
-2.3465e-15
2.31205e-16
1.71362e-15
1.38337e-14
7.56926e-15
5.1892e-15
7.3353e-15
-4.79109e-15
-4.06497e-15
-4.4613e-15
2.42085e-15
-8.74894e-16
1.32184e-14
-1.21596e-13
-1.26075e-13
-9.85058e-15
6.87357e-16
-3.93106e-16
-4.69262e-15
6.50813e-15
-2.45312e-14
2.1965e-15
-1.3267e-14
-1.50237e-13
5.83049e-14
3.28887e-15
-1.41378e-14
-8.40447e-16
-6.28414e-15
-2.82425e-15
-6.43949e-15
2.99935e-15
-8.74156e-15
2.35671e-15
2.84335e-14
-1.84161e-14
-1.31077e-15
1.28095e-15
-9.69999e-15
-4.50081e-15
-1.4203e-14
-1.22482e-14
1.68864e-14
-5.46394e-15
6.42081e-15
1.37108e-14
-4.89652e-15
-5.02736e-16
-4.8387e-15
-1.40153e-16
9.06482e-16
-1.84063e-15
-2.26472e-15
-4.08777e-15
-6.85645e-15
3.34572e-15
-3.17537e-15
2.9675e-15
-2.69249e-15
3.18943e-15
-8.28274e-16
-1.79351e-15
1.17305e-14
9.2556e-15
3.4246e-14
-7.46471e-15
3.51047e-15
1.50607e-15
2.25281e-14
1.13747e-14
-7.34423e-16
1.14433e-14
3.24512e-15
-1.03179e-14
-5.77428e-15
-7.05997e-15
-1.6675e-14
3.24919e-15
1.40369e-15
3.88256e-15
-3.90448e-15
-1.75433e-14
-7.17722e-15
-9.45515e-15
-6.21621e-15
-8.10227e-15
3.10345e-15
-3.15367e-15
8.13898e-15
0
1.90911e-15
1.04135e-15
-4.38305e-16
-3.94722e-15
2.7064e-15
7.74623e-15
-6.52153e-18
-4.36468e-15
5.18126e-24
-7.92571e-16
2.00994e-15
1.06384e-16
3.33163e-16
-4.30213e-15
-1.01795e-14
1.2128e-15
6.9426e-15
5.00908e-15
-3.51201e-16
-1.41535e-15
2.63726e-15
0
-9.45736e-15
-8.86536e-15
1.26437e-14
4.63945e-16
-1.125e-14
-7.24218e-16
8.39052e-15
2.19458e-15
-6.76319e-15
5.15882e-15
1.41415e-16
2.06118e-14
6.22548e-15
-9.11058e-16
-1.75781e-15
4.64701e-15
-3.74237e-16
-5.91585e-15
5.22906e-15
-1.34875e-16
-2.44839e-15
-1.29236e-15
-7.86305e-16
1.51932e-15
-6.18024e-15
-4.41966e-16
4.62583e-16
2.56663e-16
-4.71108e-15
3.61382e-15
-5.94331e-15
-1.33404e-15
-1.86986e-16
-2.05461e-15
-2.28796e-15
3.53227e-15
2.17035e-15
3.91829e-15
6.50079e-17
6.55119e-16
1.33444e-16
-4.74796e-15
1.581e-14
3.69502e-15
1.64838e-15
9.94466e-16
-3.16849e-15
5.38895e-16
-1.78109e-16
3.958e-15
-3.06826e-15
-1.18042e-30
9.98042e-17
2.14301e-15
5.39411e-15
7.13902e-16
3.37782e-16
2.08107e-15
1.90761e-15
-1.72888e-15
-1.53443e-17
1.50965e-15
-9.02949e-16
-3.00006e-15
6.18271e-15
-2.88482e-15
-6.28336e-15
-2.51966e-16
5.60048e-15
8.03036e-17
6.19627e-15
-4.48475e-15
-6.4506e-15
1.59509e-15
6.11234e-15
-2.77792e-15
5.84573e-15
2.64798e-15
-1.13428e-15
1.42845e-15
1.12505e-15
5.44758e-15
-1.15847e-14
2.33634e-15
-3.55995e-15
-1.10851e-15
5.0944e-15
2.41505e-15
-1.08783e-15
4.39785e-16
4.93335e-16
5.774e-16
-1.58084e-16
4.57461e-15
1.07607e-16
-7.30771e-15
5.65595e-15
-2.26304e-15
-1.03685e-14
6.29683e-15
-1.17817e-15
-2.84054e-16
2.73442e-15
-1.39783e-15
-8.09516e-16
2.66851e-15
-1.03722e-15
-3.136e-16
1.86394e-15
-4.2397e-16
1.24796e-15
-4.21366e-15
8.20989e-15
-6.47469e-16
-1.00704e-15
3.20419e-15
-1.24859e-15
-2.32386e-15
1.49053e-15
1.63944e-15
-1.22206e-14
7.6683e-16
-2.57966e-15
-3.00718e-16
-4.39406e-15
5.06761e-15
-3.03772e-15
3.34293e-15
-2.32317e-15
8.90179e-16
2.97399e-15
-2.33737e-15
-9.15283e-16
-3.05956e-15
2.03478e-15
8.54714e-15
-1.35464e-15
2.39079e-16
-6.73422e-16
1.31045e-15
-9.07168e-15
-1.47144e-15
-3.01317e-17
1.35228e-15
9.29069e-16
-3.20158e-15
-2.80265e-15
5.19551e-16
-1.8311e-15
-3.99951e-16
-1.05507e-15
-3.447e-15
-2.24842e-30
5.82521e-15
-1.27303e-16
-6.69081e-16
-2.21534e-15
-3.08497e-24
-1.94201e-15
-7.02987e-16
-8.61867e-16
-1.96726e-15
-2.29012e-15
6.54857e-16
2.4625e-16
-2.1577e-15
-1.27432e-15
-2.37362e-15
2.78044e-15
-3.14695e-15
-1.35264e-15
-9.63745e-16
-1.16201e-15
4.03317e-15
-4.71966e-16
2.67471e-15
1.33325e-15
3.37708e-15
1.24643e-15
-1.00309e-15
1.56627e-15
-6.45598e-16
6.91471e-16
5.95828e-16
2.50637e-16
4.64818e-16
-1.03201e-15
-1.82938e-15
-6.60789e-16
9.48447e-16
5.67097e-16
-6.30177e-16
0
-3.90435e-15
2.91136e-15
-2.45228e-16
-2.41694e-15
-3.48198e-16
-7.38159e-16
2.22089e-15
-5.57008e-16
1.16485e-16
1.24944e-15
-1.12636e-16
-2.34888e-16
0
-1.1949e-15
-1.67793e-15
-30.2827
-22.4369
-24.2631
-57.1133
-108.473
-144.423
-145.211
-119.091
-100.116
-114.529
-146.755
-185.144
-229.845
-280.059
-330.889
-375.182
-407.464
-424.581
-422.253
-365.214
-266.993
-253.771
-335.113
-399.528
-440
-474.445
-475.181
-433.234
-394.476
-414.255
-487.315
-558.199
-568.174
-480.004
-266.749
96.3474
292.899
152.409
24.4646
-22.3644
3.39074
2.31946
2.93551
5.19165
7.74148
10.9739
12.84
10.7276
5.49824
2.68161
4.18187
6.11034
6.98798
8.13462
10.2461
11.9836
12.4309
12.1272
10.9558
7.29291
1.67537
-1.88108
-1.36044
3.42784
5.97981
4.99024
2.72849
0.93479
0.447508
0.892813
1.3362
1.58565
2.15184
4.53343
10.5004
12.339
-11.7316
-28.7703
-16.6332
-0.49736
2.25651
2.17274
-1.69235
-6.02624
-13.7256
-20.1372
-19.2139
-16.5413
-19.3443
-25.6704
-25.886
-23.303
-25.5876
-29.613
-31.6316
-36.3851
-49.3467
-65.6833
-76.782
-77.4541
-82.7462
-104.773
-107.918
-76.2257
-56.072
-58.4303
-66.7423
-72.1016
-77.1726
-86.4187
-98.25
-105.874
-103.838
-89.2037
-58.8285
-12.6356
-3.85897
-47.039
-46.7298
-15.451
-3.30988
-0.456921
-1.96527
-3.49017
-5.17082
-8.11942
-10.9035
-11.1539
-9.93386
-10.6388
-11.7327
-10.4577
-9.67756
-9.82012
-9.6797
-11.4358
-17.7147
-25.859
-31.9349
-34.9599
-37.8229
-45.0192
-47.3775
-34.8784
-24.5175
-27.697
-34.9012
-38.5554
-40.2343
-42.6081
-45.5132
-48.0655
-49.2188
-47.365
-40.37
-28.0465
-15.5803
-17.2179
-20.3059
-12.422
-1.07179
-0.0756178
0.138704
0.0757131
0.0943501
-0.0515076
-0.564711
-1.145
-0.987472
-0.711082
-0.905932
-0.830055
-0.325659
0.050462
0.268949
0.143463
-0.566326
-1.24048
-1.47474
-1.3172
-2.28372
-4.36382
-5.36068
-3.9085
-1.4908
-1.3656
-2.17011
-1.70292
-0.561669
-0.355158
-0.991463
-1.84444
-2.70242
-3.52539
-3.55772
-1.59325
-0.666747
-1.56986
-2.82008
-2.51512
0.0576887
0.0688127
-0.050283
-0.0897642
-0.124955
-0.096701
0.0275243
-0.0460964
-0.19317
-0.0233706
0.0242621
0.0154996
0.00125577
-0.0591318
-0.102814
-0.0309428
0.034802
0.0711488
0.0151231
0.497684
0.590097
-0.345712
0.166787
0.454386
0.105718
-0.00764676
-0.145015
0.00106663
0.580066
0.768913
0.417448
0.17294
0.0690336
-0.01209
-0.0663586
0.140374
0.300873
0.00233379
0.0264577
-0.0597716
0.178904
0.212171
0.0527891
-0.117003
-0.182951
-0.1782
-0.0855738
0.0550941
-0.0730755
-0.0437948
0.0833383
0.0141704
-0.049429
-0.125819
-0.120346
0.00691699
0.0571675
0.070981
0.0534921
0.180987
0.555105
-0.00918564
0.248503
0.670955
0.481193
0.332143
0.0769224
-0.0266788
0.0674061
0.183549
0.084828
-0.0942863
-0.16159
-0.261051
-0.0990946
0.0174766
0.0859888
-0.189078
-0.138692
0.134508
0.101979
0.147453
0.140958
0.0142702
-0.0642868
-0.083421
-0.0649358
0.0166693
0.0524331
-0.0761515
0.059075
0.0609706
-0.0519694
-0.0879105
-0.0383691
0.035871
0.0202837
0.0162672
0.0242723
0.0800687
0.260203
0.127435
0.0896461
0.351841
0.355974
0.16575
0.0195111
-0.00430524
0.00134907
0.011072
0.0193147
0.0129137
0.0235566
-0.0265394
-0.118806
0.00833619
0.044479
-0.0283126
-0.19063
-0.0364818
0.0153138
0.0601768
0.0916045
0.0411163
-0.0143902
-0.0215749
-0.018341
-0.00782458
0.036272
0.0072321
-0.0150174
0.0758075
0.0183755
-0.0299942
0.00445796
0.0275406
0.00330619
0.00825926
0.00312667
0.0400346
0.0812871
0.104729
0.0448781
0.136251
0.156146
0.0469045
0.00178269
-0.000500193
-0.000183629
-3.93889e-06
4.92943e-05
9.46662e-05
0.00249929
0.0140046
-0.0179264
-0.0173134
0.0267512
0.0179742
-0.0554989
-0.0670146
-0.00838166
0.0140126
0.0330249
0.0151705
-0.00481969
-0.00307528
-0.000340165
-0.000841482
0.00388948
0.0215698
-0.0034868
0.0238215
0.0463802
0.018968
0.0153591
0.0103384
-0.00201945
0.00526248
0.000846353
0.0120696
0.0124898
0.0421063
0.0212375
0.0413554
0.0553854
0.00876685
-0.00105921
-0.000646911
-0.000126025
-3.13336e-05
4.4869e-06
0.000150835
-2.5757e-05
0.000614723
0.000792671
-0.00492726
0.00483974
0.00837642
-0.00474644
-0.0234867
-0.00508308
-0.00111432
0.00433989
0.00314447
0.000195334
0.000471524
0.000517597
0.00155326
0.000328093
0.00468885
0.00624252
0.00284111
0.0242732
0.0183497
0.00576882
0.000681361
-0.001838
0.00112594
0.000458741
0.00150441
-0.000388738
0.00657104
0.00751502
0.00687718
0.00802645
-0.00136362
-0.000904273
-0.000229199
-2.04794e-05
1.54162e-06
-8.77513e-06
-2.75602e-05
4.10229e-05
7.78516e-06
0.000199854
-0.000480131
-5.31285e-05
0.00118843
0.000598972
-0.00284527
-0.00110744
-0.00148581
-0.00112626
-0.000117965
0.000637667
0.000140067
0.000269757
3.91055e-05
0.000749298
2.07053e-05
0.00132227
0.000447757
0.00416999
0.00419977
0.00108803
0.000105657
-0.000311871
1.56207e-05
8.34149e-05
-0.000409789
-0.000571999
-0.000334667
0.00274557
-0.00337352
-0.00279386
-0.000982992
-6.523e-05
7.57612e-06
7.47437e-07
8.68811e-08
1.33432e-07
-2.6616e-06
-4.83058e-06
5.42666e-06
7.17594e-06
1.27584e-05
-0.0004885
7.25788e-06
-4.05139e-05
0.000174651
1.22927e-05
-0.00203408
-0.00202108
-5.26205e-05
4.8121e-05
1.79428e-05
4.85855e-06
9.82984e-06
8.18456e-06
-1.31911e-06
-1.47359e-05
1.47001e-05
6.36804e-05
0.00103595
0.000653764
8.27614e-06
-1.39293e-06
-1.04195e-06
0.00016824
5.25035e-05
-0.000119906
-4.81803e-05
0.000724682
-0.00155934
-0.000908373
0.000230479
2.25977e-05
-9.37943e-08
-2.27237e-08
-7.49653e-11
-7.70827e-10
1.65529e-08
5.45331e-08
-9.53781e-08
4.51857e-08
1.45883e-06
2.91109e-08
1.25339e-06
-1.85757e-06
-1.33407e-05
-1.0007e-06
-3.13913e-05
-4.74862e-05
-2.38812e-06
5.72253e-07
1.01534e-07
1.87641e-08
-4.05584e-08
-2.51871e-07
-8.68138e-08
-5.00476e-08
1.73346e-06
5.72311e-06
1.2601e-05
4.52489e-06
5.55925e-07
-9.63286e-10
-1.21249e-07
-1.80477e-06
-2.23602e-08
-5.50388e-06
0.000136727
1.93965e-05
-1.96067e-05
0.000167714
1.20697e-05
-6.87197e-07
-5.02351e-08
-1.40158e-09
-1.27199e-11
4.27761e-12
-5.13236e-11
-3.37615e-10
8.46323e-10
-1.18691e-09
-1.72806e-09
1.2773e-11
-5.73448e-09
8.70253e-08
6.83824e-07
1.41841e-10
-5.67767e-08
-1.29755e-07
7.34934e-09
3.39466e-09
2.11225e-10
-3.00534e-11
-2.60892e-11
2.89537e-09
1.83731e-09
6.12277e-12
2.35852e-09
4.08219e-08
5.02158e-08
2.03253e-08
1.46203e-09
-4.25594e-11
5.09209e-10
1.27922e-08
3.35683e-08
-1.18963e-06
1.68513e-07
6.47384e-08
2.11124e-06
-2.16937e-06
-5.27842e-07
-2.65002e-08
-4.70025e-10
5.91546e-12
5.49547e-13
-2.71644e-14
4.6205e-14
6.27381e-13
-3.30802e-12
7.22989e-12
-2.4322e-12
2.17547e-12
-5.12044e-11
6.809e-10
-1.62178e-09
-9.84243e-12
1.04271e-10
4.29106e-10
9.63341e-11
4.96858e-12
1.44907e-13
5.32496e-14
-9.5082e-14
-4.34993e-12
-5.44153e-12
-6.92465e-14
-5.81613e-12
1.78954e-10
1.79017e-10
1.71115e-11
-6.32769e-12
-6.33027e-13
1.28253e-12
-4.4757e-12
2.18476e-10
2.70648e-09
-1.36863e-10
-6.25552e-09
-8.19855e-08
-7.82303e-08
-6.32915e-09
-1.46391e-10
3.85969e-12
4.43487e-13
5.75593e-15
-2.2451e-14
7.47409e-16
5.82607e-16
-4.08859e-14
-2.57275e-14
6.56809e-15
4.33727e-15
-2.15581e-13
2.95731e-12
-1.1428e-11
-4.49669e-15
-6.59742e-15
8.83054e-13
2.05836e-13
9.39377e-15
-6.856e-16
-9.90904e-16
-7.08187e-16
-2.56375e-15
3.48832e-15
-1.88652e-15
-8.50586e-16
3.31033e-13
1.55513e-13
-6.39788e-13
-1.13189e-13
-2.29653e-15
2.14492e-16
-5.86239e-14
-3.02563e-12
6.05837e-12
-1.30805e-12
-2.76545e-12
-7.75319e-10
-5.03922e-10
-2.3098e-11
9.33265e-13
1.17043e-13
-8.84614e-15
1.49477e-14
3.83722e-16
1.04061e-14
3.69007e-16
-8.59076e-15
-7.04891e-15
-2.24358e-14
-7.34099e-15
3.79448e-15
1.41179e-14
-8.05298e-14
-1.14696e-14
5.32387e-15
1.00714e-15
2.07913e-15
4.73968e-15
1.07432e-14
-8.31663e-15
1.67608e-15
8.09304e-17
3.98935e-15
-7.39138e-15
3.39996e-15
-7.44981e-15
-2.11586e-15
-3.92879e-15
-1.34233e-15
-3.43551e-15
-4.90921e-16
-6.30468e-15
6.67122e-15
1.39478e-14
8.66337e-15
1.18844e-13
-2.36038e-12
-4.32501e-13
2.2352e-13
1.43189e-14
-2.15421e-15
1.48475e-15
-8.0997e-15
8.90007e-16
2.60289e-15
3.53037e-15
0
1.0343e-14
-3.44415e-14
-9.85013e-15
-1.37329e-15
1.00703e-14
9.48653e-15
6.41705e-16
-6.51326e-15
6.61452e-15
2.00017e-14
-4.37602e-15
-5.21192e-15
5.69329e-16
1.55064e-15
3.12027e-15
1.99435e-15
-2.42986e-15
-9.78281e-15
1.7368e-14
-6.43213e-15
3.72201e-15
9.13902e-15
3.69328e-15
-3.79982e-15
1.06883e-15
1.57941e-15
5.95331e-15
6.64775e-16
-3.54045e-15
2.48573e-15
2.09042e-14
-2.30212e-14
1.17757e-14
2.69637e-15
-2.01629e-15
-9.52301e-15
2.78583e-14
2.42839e-15
-1.30391e-15
-9.80034e-15
1.2437e-14
2.55234e-14
-1.04891e-14
2.63346e-15
-5.26821e-16
6.9589e-16
2.45765e-15
3.80833e-16
-9.66028e-15
2.40416e-14
-8.98051e-25
-4.07425e-15
2.87789e-16
-2.15088e-16
1.94744e-15
-2.56691e-15
-3.44829e-16
-2.32583e-15
5.17586e-15
-6.43538e-17
-6.45668e-15
5.48612e-15
1.02578e-14
-1.43119e-15
1.2803e-15
2.44962e-17
2.04976e-16
1.4962e-15
-3.33234e-15
8.72559e-15
1.50158e-14
-3.38395e-15
-1.65657e-15
-6.78393e-16
3.78187e-15
4.41426e-15
-3.49523e-15
7.90589e-15
2.05731e-15
5.74353e-15
1.32598e-15
9.02271e-15
6.1521e-15
-3.99696e-15
8.06743e-16
2.40545e-15
2.52209e-15
-3.9372e-15
2.95034e-15
2.05458e-15
4.17557e-16
2.96213e-15
4.5051e-15
5.33493e-15
5.78271e-16
3.51048e-15
5.00662e-16
-1.76434e-15
5.32648e-16
4.41189e-16
-2.75754e-15
-2.10947e-15
4.99724e-15
-1.75614e-15
1.51681e-16
4.74668e-15
4.55957e-15
-2.12919e-15
3.41496e-15
-7.88269e-16
-6.17793e-15
2.40655e-15
1.2306e-14
5.72367e-15
2.25874e-16
0
9.23814e-16
-8.39646e-15
-2.03665e-14
-7.9474e-15
7.83101e-15
-5.31308e-15
4.89165e-15
4.51014e-15
-7.21667e-15
-7.45603e-15
-1.67122e-15
4.82189e-15
2.20737e-15
6.46532e-15
-2.05528e-15
-2.94217e-15
-3.15037e-15
1.12679e-14
2.23587e-15
1.59574e-15
-1.83518e-16
-3.67619e-15
1.63474e-15
-7.65275e-15
-4.68897e-15
1.98844e-15
-3.67929e-15
4.7799e-15
1.63248e-15
2.92142e-15
5.2642e-16
-5.2887e-16
-3.76467e-15
2.28193e-15
1.31772e-14
-3.36247e-15
4.59173e-15
-4.07473e-15
-4.21878e-16
2.2619e-15
-1.71103e-15
-6.32591e-16
-7.32256e-16
-2.47786e-15
-4.68395e-15
2.6243e-15
-6.25774e-16
2.86375e-15
3.92313e-16
1.19752e-15
1.39843e-15
-1.38137e-16
3.57518e-15
4.0507e-15
-1.00662e-15
-1.67982e-15
5.19634e-15
-3.80281e-15
-3.06492e-15
1.27762e-15
-1.46216e-14
-5.09444e-15
3.60118e-15
-1.51804e-15
3.42969e-16
1.10392e-14
7.51849e-15
-5.92858e-15
-1.62153e-24
-2.33554e-25
4.20613e-15
-4.10067e-15
3.27457e-15
2.37349e-15
-5.4212e-16
2.58129e-16
9.10159e-16
-2.5736e-15
7.02271e-16
1.88441e-15
-1.86103e-15
-1.81341e-15
4.0933e-15
1.08763e-15
-2.41486e-16
1.64854e-15
-4.43333e-15
2.97894e-15
-1.91345e-15
-7.2739e-17
1.18342e-15
-4.26926e-15
9.6738e-16
-1.1172e-15
-9.00857e-16
-2.35043e-15
-9.0567e-15
-7.88597e-15
5.0858e-15
-1.51678e-15
1.94256e-15
6.91185e-15
2.57437e-15
-2.81482e-15
2.4419e-15
-6.5765e-16
5.29286e-15
-5.00203e-16
-3.77958e-15
2.62023e-15
8.03841e-16
1.01746e-15
-3.56038e-15
-3.01475e-15
4.69303e-15
-6.93893e-15
-2.42947e-15
7.15454e-15
6.23579e-16
-1.11195e-15
-8.338e-17
-1.48113e-15
1.13022e-15
-1.72012e-16
-1.33823e-15
-2.27969e-15
-1.68352e-15
-1.09362e-15
8.33998e-16
-5.41821e-16
-1.82127e-15
6.24937e-16
-4.72057e-15
-4.87955e-15
-3.58595e-15
-2.54575e-15
3.62115e-15
1.38214e-15
-2.53594e-16
2.73054e-15
-3.96335e-15
4.99149e-15
-4.21927e-15
2.40581e-16
2.61958e-15
-2.95803e-15
1.8039e-15
1.26165e-16
-9.27215e-16
-2.0316e-15
-5.34713e-15
-4.7163e-17
-3.00683e-15
-1.63724e-15
-2.75096e-15
-2.31626e-15
-3.45216e-17
2.43736e-16
1.73397e-15
-2.56386e-15
-1.8163e-15
-9.35748e-16
-8.27392e-16
-1.30849e-15
1.11777e-17
-1.35992e-15
-1.41328e-16
3.48519e-16
1.94674e-15
1.07468e-16
-65.4967
-41.5011
-51.0244
-103.895
-161.025
-191.502
-194.651
-180.988
-168.538
-174.782
-209.083
-264.259
-326.763
-383.893
-430.41
-464.895
-496.727
-536.822
-574.058
-542.675
-371.682
-153.048
-94.4481
-157.856
-197.257
-203.14
-209.127
-242.38
-320.293
-429.373
-529.062
-568.957
-506.921
-343.821
-128.462
79.0734
166.377
99.5635
-1.56745
-62.3869
0.691223
2.00288
4.13546
6.63245
8.66146
9.86955
10.3193
10.3393
9.79322
8.34537
6.80672
6.33933
6.7919
7.23139
7.14327
6.3958
5.525
5.33056
5.81973
6.5128
6.41629
1.99865
-4.03886
-1.78684
6.34425
7.83642
5.09806
2.86202
2.13259
2.31644
2.79019
3.41713
4.69186
6.67737
8.03917
5.08755
-7.62539
-17.6456
-13.4661
-4.00763
-12.2424
-5.72165
-9.35733
-14.529
-17.729
-18.0662
-16.3426
-12.7623
-10.3851
-13.9674
-23.8615
-34.0602
-40.0929
-44.4119
-52.5681
-67.6441
-87.1132
-102.603
-105.152
-88.7718
-61.8115
-56.239
-81.1719
-77.7516
-36.4247
-14.0815
-19.8174
-38.8248
-60.3162
-77.4994
-86.9174
-87.3023
-78.3037
-62.7617
-45.2452
-28.8795
-29.2319
-50.0577
-56.8019
-35.0285
-8.43967
-3.49396
-5.10368
-7.57255
-8.84187
-9.29544
-9.06895
-8.3938
-8.24638
-9.80295
-12.7736
-15.8904
-17.3926
-18.0354
-20.8687
-28.022
-38.0028
-46.01
-47.4226
-40.5806
-30.8658
-29.4752
-39.7195
-41.9883
-26.2854
-14.6117
-17.2036
-26.5785
-35.7355
-41.4061
-43.4681
-42.8021
-39.7752
-35.7212
-32.5559
-29.5253
-24.3817
-22.665
-24.365
-19.0055
-1.93298
-0.60957
-0.315252
-0.531646
-0.602024
-0.570167
-0.456285
-0.16718
0.221845
0.26772
-0.203423
-0.754335
-1.01
-1.02381
-1.29004
-2.18847
-3.34375
-3.84039
-3.53205
-2.12066
0.103394
0.0230637
-3.32888
-5.7844
-4.22455
-1.02146
0.0246476
-0.939122
-2.25551
-3.02908
-3.14728
-2.73562
-1.87249
-1.0358
-0.703175
-1.02685
-1.71825
-2.41228
-3.49346
-3.9705
-0.41082
0.119664
-0.00320115
-0.0141173
-0.000880494
-0.000162149
0.00348849
0.0449286
0.120316
0.15666
0.0901693
0.0322531
0.0269701
0.015931
0.00474296
0.0102794
-0.0122388
0.0392048
0.058343
-0.0777819
0.43193
0.64713
-0.136353
0.002886
-0.0472614
-0.110397
0.127223
0.23761
0.164947
0.0475782
0.00635843
0.0550647
0.238361
0.416583
0.464672
0.362927
0.169782
0.0436384
-0.184845
-0.881446
-0.283787
0.320077
0.0952301
-0.0916141
-0.0789281
-0.0481494
-0.0225972
0.0314594
0.0771948
0.0324632
-0.0851152
-0.179644
-0.15305
-0.0312192
0.131862
0.233662
0.131354
0.00636883
0.0133861
0.0337527
-0.116663
-0.0907134
-0.103152
0.117551
0.267854
0.07589
0.00376109
-0.00246705
-0.0657278
-0.162216
-0.198286
-0.155274
-0.037432
0.0984553
0.143734
0.0649672
-0.103648
-0.142112
-0.0228238
-0.124829
-0.116087
0.180386
0.212097
-0.0263923
-0.0757175
-0.0557558
-0.0253439
0.017138
0.079784
0.0900878
0.0175505
-0.0975034
-0.195581
-0.136551
0.0247643
0.0971998
0.0454521
-0.00671692
0.00109169
0.0231138
0.0190594
-0.142843
-0.0761022
0.0119525
0.0708503
0.0849091
0.0422843
0.0128651
-0.013188
-0.032242
-0.0330933
-0.0271916
-0.00904751
0.0204357
0.0602291
0.0716275
-0.000635257
-0.0927172
-0.0725436
0.00229882
-0.0195799
0.0567054
0.169119
0.0429785
-0.0269357
-0.0386376
-0.0256299
-0.0111955
0.0177546
0.0502356
0.0404634
-0.001255
-0.0642668
-0.0699774
-0.014183
0.00945195
0.000761024
-0.00616278
0.000169229
0.000519994
0.0261781
-0.0197918
-0.0238136
0.0115334
0.0260801
0.0390478
0.0213353
0.00683967
0.000114032
-0.00214678
-0.00167468
-0.000610419
0.000176273
0.000343273
0.00270846
0.0195647
0.0184465
-0.0126536
-0.0293644
0.00770857
0.0042882
0.0159615
0.0765244
0.0337201
-0.00807037
-0.0221107
-0.0200359
-0.00929843
-2.10497e-05
0.00950259
0.0167707
0.00813315
-0.005209
-0.00558623
0.0005233
-0.00109361
-0.00301664
-0.00327634
-0.000216058
-0.000543154
0.00550981
-0.00062662
-0.00261946
0.00479277
0.0113144
0.0144722
0.00764802
0.00153905
-0.000812101
-0.000910236
-0.000177244
-0.000107805
1.03029e-05
-1.0832e-05
-0.000195896
0.000717124
0.00250277
-0.000500573
-0.00417573
0.0100588
0.00338571
0.00234564
0.019421
0.0103229
-0.000202628
-0.00212318
-0.00108342
0.00163822
0.00178575
0.000896483
0.0017109
0.0022263
0.000307608
0.000862379
0.000745914
-0.000167727
-0.000924978
-0.000877247
6.02073e-05
-6.57097e-05
0.00119177
0.000134046
0.0012647
0.00127365
0.00130328
0.00361598
0.00147748
-0.000294697
-0.000914416
-0.000533149
1.06226e-05
2.62877e-05
1.72665e-05
8.01238e-06
3.62572e-06
6.30892e-06
0.000116025
-3.30598e-05
-5.36492e-05
0.00500077
0.00159664
-0.00126987
0.000362437
0.00131071
0.000718076
0.000957186
0.00146179
0.00208492
0.000975819
0.000666347
0.000354016
0.00039844
0.000702752
1.83919e-05
0.000311143
1.06613e-05
-3.63489e-06
3.72336e-07
-4.99019e-05
-1.52147e-05
0.00032908
0.000129659
0.0012351
-0.000229362
-0.00116281
0.000621783
0.000257948
-0.000224927
-0.000418735
-1.53743e-05
4.20466e-07
-2.28502e-07
-2.33781e-07
-1.40398e-06
1.16768e-05
1.25326e-06
1.67442e-05
-2.0928e-05
4.97694e-06
0.00172194
0.00211561
-0.000138592
-0.00125686
-6.91606e-05
0.000238809
5.29635e-05
0.000500646
5.655e-05
5.3494e-05
3.4439e-05
1.1699e-05
7.53684e-06
1.39798e-06
-3.84808e-08
2.1931e-06
1.60427e-06
1.84321e-07
-3.01259e-07
2.27978e-07
8.61915e-07
-6.83574e-06
8.90486e-05
0.00057422
2.17418e-05
5.48997e-05
0.00028605
0.000145132
-3.15999e-05
-3.42336e-06
-5.7458e-08
-1.60844e-11
1.77366e-09
2.05656e-09
4.18688e-08
-2.83147e-07
8.48366e-08
8.02793e-08
2.74265e-07
-5.44726e-06
0.000436523
2.95309e-05
-0.000112637
-0.000187639
-1.97444e-05
1.31696e-05
9.62205e-06
2.03451e-06
6.37971e-09
8.3658e-08
2.88751e-08
1.97461e-08
6.32115e-08
6.99543e-08
-6.72892e-09
8.54618e-09
4.93689e-09
6.63545e-11
-3.80812e-10
-1.6821e-09
-3.64332e-08
-1.27969e-07
8.69318e-07
-1.68905e-06
4.35409e-06
2.42771e-05
2.03511e-07
-6.74948e-06
-6.47816e-07
-2.19794e-08
-3.14019e-10
-7.6339e-12
-4.97168e-12
-1.1087e-11
-5.95352e-10
3.64064e-09
-4.37165e-09
-1.05509e-09
4.29325e-08
-4.08979e-07
1.86663e-06
-1.21566e-06
-1.15393e-05
-6.9495e-06
-1.36172e-07
7.83424e-08
3.25781e-08
4.2651e-09
-7.14237e-11
1.02775e-10
6.24584e-12
-1.74635e-12
6.62617e-11
5.40617e-10
1.13306e-10
1.21691e-11
7.02881e-12
5.19236e-13
-8.87035e-13
-1.01243e-10
1.76788e-10
5.44485e-09
-5.27101e-09
3.51787e-08
1.63419e-06
-6.41289e-07
-4.22078e-07
-7.59823e-08
-3.04273e-09
-1.4214e-11
8.82087e-13
-1.83713e-14
-5.70098e-14
7.6004e-14
3.48131e-12
-2.78768e-11
3.1881e-11
-9.48918e-13
4.72843e-10
-8.01756e-09
5.36105e-08
-3.78891e-09
-2.81325e-08
-1.52986e-08
-2.52096e-10
8.20667e-11
1.16575e-11
-1.45737e-12
-1.42346e-14
-1.03005e-13
-1.97441e-14
1.89187e-15
2.30404e-14
1.9173e-12
2.38779e-12
3.70663e-13
6.29633e-14
2.07149e-15
-3.15716e-14
5.88965e-13
9.20486e-14
-3.78913e-11
2.28349e-11
3.58413e-10
-1.07858e-08
-2.21042e-08
-3.97889e-09
-2.71309e-10
2.08369e-12
6.0326e-13
2.62676e-14
-4.33721e-14
-6.98724e-15
1.16932e-14
2.84974e-14
1.10346e-13
-1.70276e-13
1.00655e-13
2.25937e-12