/*--------------------------------*- C++ -*----------------------------------*\
| =========                 |                                                 |
| \\      /  F ield         | OpenFOAM: The Open Source CFD Toolbox           |
|  \\    /   O peration     | Version:  5.0                                   |
|   \\  /    A nd           | Web:      www.OpenFOAM.org                      |
|    \\/     M anipulation  |                                                 |
\*---------------------------------------------------------------------------*/
FoamFile
{
    version     2.0;
    format      ascii;
    class       volScalarField;
    location    "50.4676134421789371";
    object      GradTWMean;
}
// * * * * * * * * * * * * * * * * * * * * * * * * * * * * * * * * * * * * * //

dimensions      [0 -1 -1 1 0 0 0];

internalField   nonuniform List<scalar> 
60000
(
-65.3277
-45.9535
-19.8929
6.67747
31.805
46.8808
43.0199
17.9297
-21.1258
-54.1996
-65.8899
-53.4642
-26.299
0.972441
25.7772
51.5529
72.584
84.9127
96.1927
88.433
40.1963
-30.821
-83.4959
-98.0273
-81.9173
-58.1687
-47.5227
-53.0416
-52.9112
-20.2754
35.0575
78.0581
98.352
111.623
121.225
97.2758
26.103
-40.4274
-71.3578
-75.1211
4.34508
1.57379
-1.39996
-2.34869
-2.57401
-4.58858
-4.69101
-0.697648
5.17605
8.86839
8.49872
6.06469
2.66837
-1.24606
-4.58987
-6.46484
-6.23991
-4.38002
-2.36602
-0.155336
3.43469
8.23264
9.99544
7.12879
3.02934
-0.557796
-2.75612
-3.27225
-2.38329
-0.895245
0.0377414
-0.130574
-0.734234
-0.865537
-0.714276
-1.18147
-1.60215
0.365726
3.85608
5.46329
5.04619
4.88635
1.07003
-0.751872
2.30211
2.00201
-4.03923
-7.05465
-4.20175
3.36497
8.24848
8.33785
5.73234
1.64079
-1.22102
-1.45084
-0.707764
0.647792
1.65813
2.32104
5.53624
16.8419
28.0257
22.8355
8.57156
-5.71347
-15.8331
-20.7931
-19.4624
-10.7797
1.12009
8.62348
9.42097
7.62983
6.06031
2.74721
-5.10973
-11.005
-8.49411
-0.498466
2.00606
4.01388
2.7865
0.607098
0.379376
1.12212
-0.358246
-2.78048
-3.50442
-1.34018
2.41192
4.06105
3.25465
1.1685
-0.781513
-1.59854
-1.41998
-0.699568
-0.442842
-1.38929
-1.2976
2.02816
8.12516
8.84188
4.34088
-0.717918
-4.00913
-5.63819
-5.94796
-4.51107
-1.5957
1.36663
2.86423
2.24264
-0.021096
-2.07911
-2.91773
-3.77786
-3.98317
-1.80023
-0.180274
0.623122
0.851163
0.42425
0.116291
0.138638
0.106459
-0.275139
-0.60425
-0.580679
0.0588701
0.709746
0.815799
0.463702
-0.0139226
-0.292748
-0.360219
-0.11193
0.208354
-0.172958
-0.315629
-0.0484328
0.976216
1.53617
0.901698
0.197088
-0.0767393
-0.159125
-0.268571
-0.321293
-0.11643
0.242447
0.577746
0.719453
0.428992
-0.373897
-0.787522
-0.783124
-0.841633
-0.761449
-0.082759
-0.00307546
-0.00148732
-0.0239005
-0.0254152
-0.0230987
-0.018547
-0.00164491
-0.0380955
-0.0785531
-0.0746677
0.0188131
-0.072639
-0.154031
-0.0242861
0.119318
0.0352234
-0.0123292
0.341256
0.195411
0.0684045
0.364855
0.173562
-0.0239512
-0.012755
0.0152496
-0.0200714
6.38194e-05
0.0744929
0.0743188
0.0559967
0.0287471
-0.00729808
-0.0129377
0.079882
0.0879599
-0.0397799
-0.0203657
-0.0220161
-0.0966554
0.022291
0.0338973
0.00317645
-0.0421129
-0.0443908
-0.0375649
-0.045205
-0.024784
0.00150019
0.0133235
-0.00782134
-0.0123595
-0.0301233
-0.0702706
0.0266521
0.138456
0.0754019
-0.0185624
0.232984
0.385847
0.068478
0.321365
0.279108
0.0814808
0.112575
0.0223792
-0.0132113
-0.0313122
-0.00294923
0.0230322
0.0478736
0.022402
-0.0508479
-0.096007
-0.0785234
-0.00206233
0.0110223
0.0210339
0.0614102
0.0541938
0.0223039
0.0197205
0.016034
-0.00282226
-0.00985374
-0.0109595
-0.0176248
-0.02051
-0.00863124
0.00242062
0.00289971
-0.00902874
-0.00718684
0.00675297
0.0332216
0.0288413
-0.014908
-0.026886
0.0628048
0.292981
0.153486
0.138645
0.292575
0.254979
0.114411
0.00387852
0.00138416
0.00085375
-0.00542056
-0.000706329
0.0134082
0.0289114
0.000973537
-0.0370114
-0.0416804
-0.0205575
0.00127581
0.00138329
0.012697
0.0277914
0.00770217
0.00743359
0.0054699
0.000188072
-0.00101427
-0.000472942
-1.90652e-05
-0.00290718
-0.00445927
-0.00273804
-0.000747256
-0.00414455
-0.00674498
0.00615204
0.0115371
-0.0050037
-0.0220604
-0.0285544
-0.000521512
0.0764087
0.121321
0.0399605
0.21659
0.206989
0.0467957
-0.00337684
-0.00415371
0.0011724
0.000326745
-0.000574515
-0.000280487
0.00799113
0.0120626
0.000715831
-0.00850209
-0.00705807
-0.00182274
0.000833727
0.000543874
0.00439898
0.00118253
0.00184837
0.00121928
-0.000262732
-0.000327331
3.05647e-05
3.47815e-05
0.000513329
-0.000138041
-0.00108842
-0.00102816
-0.00107531
-0.00345924
0.00172614
0.00234389
-0.00175376
-0.000524322
-0.0112062
-0.000393563
-0.00737031
0.0176996
0.00351944
0.112125
0.100598
0.0129366
-0.00272967
-0.000624388
-0.000307765
2.80502e-05
2.56873e-05
-0.000409978
-0.000354276
0.00199343
0.00287797
0.000291668
-0.000977333
-0.000608175
0.000151821
0.000171007
0.000224296
6.4513e-05
0.000310262
0.000196618
-5.31953e-05
-0.000197766
-5.77752e-06
7.84203e-07
9.50305e-06
0.000184419
-0.000105557
-0.000382888
-2.22582e-05
-0.000435321
-0.000897803
-0.000491133
-0.000433288
0.000992182
-0.00159852
-0.00127068
-0.00577585
-0.0235559
-0.00446313
0.0383688
0.0295235
0.00174844
-0.000980565
-0.000210187
2.32248e-05
2.38741e-05
-1.98505e-06
9.04059e-06
-3.66163e-05
-0.000325346
0.000108346
0.00036353
2.1513e-05
-5.46357e-05
-2.4535e-05
4.18445e-05
5.248e-07
-1.88074e-06
-1.10928e-05
1.60776e-05
6.63572e-06
1.80436e-06
3.90099e-07
4.61922e-06
3.49585e-06
3.4923e-06
1.77646e-05
-0.000119337
2.39975e-05
7.20624e-05
-0.000548261
-0.000566092
-0.000142082
0.000196307
0.000487304
-0.00108952
-0.000165685
-0.0145967
-0.00388455
0.00841817
0.00406771
-0.000222297
-0.000217866
2.21278e-05
2.86009e-06
5.08502e-08
6.84561e-07
-5.33952e-07
2.71446e-07
-6.63825e-07
-4.13441e-06
2.01639e-06
-3.50746e-07
-2.23605e-07
-1.38239e-06
6.13109e-07
7.05784e-06
-2.21232e-06
-9.93509e-07
2.73175e-06
1.21096e-06
1.27519e-07
7.35336e-09
-2.00533e-08
2.75927e-07
6.19959e-07
3.98282e-06
-6.64687e-07
-9.60315e-05
1.20555e-05
-0.000257933
-0.000169833
-0.0001434
-2.8509e-05
0.000121904
-0.000196998
0.000251005
-0.00327227
-0.00185169
0.00148773
0.000106926
-0.000215447
3.64523e-05
2.77693e-06
7.1034e-08
5.12392e-10
-6.85522e-09
8.2125e-09
6.27527e-09
2.80574e-10
1.48354e-08
-7.27214e-09
-9.76443e-09
2.26628e-08
-8.80399e-08
-7.48654e-09
-2.76805e-07
-1.18809e-08
-2.16223e-08
4.58534e-08
2.43326e-08
1.96693e-09
4.68311e-11
-1.70859e-11
1.28569e-09
-3.36648e-08
6.39723e-08
8.27118e-06
-1.46028e-05
-3.38955e-06
-1.58419e-05
-1.61145e-05
-3.07659e-06
8.88689e-06
6.72779e-06
-3.01466e-06
1.41241e-05
-0.000290014
-0.0004431
0.000296658
6.13309e-05
2.1077e-05
1.6049e-06
3.895e-08
-5.98435e-10
-1.24892e-11
3.46015e-11
-3.42636e-11
-4.80907e-11
1.05018e-11
-6.25108e-12
1.34139e-11
3.23343e-11
1.48728e-10
-6.24195e-10
-6.20799e-11
7.08124e-10
-5.92328e-13
-2.84662e-10
-1.24791e-10
9.01987e-11
1.30574e-11
7.22766e-13
-1.11193e-13
-2.54792e-12
9.29077e-11
-4.45978e-10
3.39536e-09
-4.42619e-07
1.65229e-06
-3.74279e-07
-2.89087e-07
-3.3549e-08
1.36077e-09
-1.48641e-07
-2.06163e-07
-6.4462e-07
-1.05745e-06
-5.27682e-07
7.70443e-06
3.62929e-06
1.03523e-07
-4.83451e-09
-7.0053e-11
1.1022e-11
5.14164e-13
-7.51253e-14
3.80346e-14
1.43922e-13
-3.05918e-14
-1.67987e-13
-1.59801e-14
-9.85658e-14
2.51703e-13
-1.75406e-12
-2.1772e-12
2.09543e-12
1.52157e-13
-8.82542e-13
-4.09429e-12
-6.50802e-13
2.18353e-14
1.32187e-14
-4.41984e-16
-1.38505e-14
-2.55376e-14
1.37689e-12
-7.50416e-12
-4.20756e-10
6.41496e-09
3.28472e-10
-2.18041e-09
-1.06269e-10
2.34345e-11
-2.63177e-10
1.47542e-09
4.96269e-09
1.15575e-08
3.62816e-11
2.34404e-09
7.23667e-09
1.25693e-10
-2.21511e-11
-6.72523e-13
-2.79339e-14
-6.65039e-16
-2.82552e-15
1.14973e-15
2.49777e-15
3.0803e-15
-1.56042e-14
2.98304e-15
-8.21465e-15
-3.62916e-14
8.37747e-15
-3.15243e-14
2.04017e-14
9.26822e-16
2.80485e-16
8.70706e-16
7.75508e-16
3.09677e-16
3.05347e-15
1.67154e-15
-6.52448e-15
1.20083e-15
-1.49396e-17
-1.23085e-14
1.41026e-13
8.97901e-12
3.13867e-11
5.77788e-12
2.04494e-12
1.72034e-13
1.21622e-13
3.7141e-12
-1.84028e-11
-2.79585e-11
2.4868e-12
-2.87056e-11
6.043e-13
4.21244e-12
4.40024e-13
2.12198e-14
-3.23611e-16
1.42414e-15
-2.08902e-15
-3.08793e-15
-1.13396e-15
3.04229e-15
-1.45408e-14
-5.1694e-16
-3.41995e-15
-2.22278e-15
-3.31795e-15
5.41293e-15
-3.72549e-16
-4.83914e-15
-5.79382e-15
-1.81215e-17
-6.35531e-16
-1.06645e-16
-3.04955e-16
-2.85578e-15
-5.47155e-15
-1.06724e-16
-1.32164e-15
-3.35574e-15
1.96644e-15
6.40633e-15
6.5545e-13
2.83488e-13
2.16475e-14
2.64368e-15
9.60319e-16
-2.47308e-14
6.58719e-14
5.89202e-14
1.15152e-14
-1.37733e-13
9.49206e-14
1.00788e-13
9.87571e-15
2.38187e-15
-5.03107e-18
-3.9078e-15
-1.16648e-15
-2.63949e-15
-3.32562e-16
2.38749e-15
1.95909e-14
1.17282e-14
-6.81234e-15
-4.64649e-16
-5.45669e-15
1.90496e-15
6.48125e-16
-2.62158e-15
-8.62305e-16
1.74775e-15
1.53811e-15
2.6809e-16
-1.70601e-15
4.71391e-15
2.56173e-15
-1.03089e-16
-1.6993e-15
-2.11384e-15
1.07452e-15
-4.10758e-15
7.45091e-15
1.18405e-14
3.03472e-16
-1.64452e-15
4.98952e-16
-3.88951e-16
-1.05649e-16
-6.46899e-17
-6.32168e-16
-4.5538e-15
-6.09948e-16
5.28668e-15
-2.66739e-15
1.86177e-16
7.14701e-16
2.51616e-15
1.10582e-15
9.51904e-16
-2.10831e-15
-1.34791e-15
-9.76387e-15
5.09738e-16
-5.37027e-15
-5.41995e-15
-2.66918e-15
-7.43336e-16
8.54612e-16
-3.02579e-16
-2.97956e-16
6.99005e-16
9.88544e-16
1.77859e-15
9.17003e-16
-2.96368e-16
4.10625e-16
2.57249e-15
-2.85838e-15
2.65479e-15
2.57051e-15
2.02456e-15
-8.93715e-16
3.60857e-15
4.96674e-15
1.6616e-15
8.51713e-16
4.75234e-15
1.55505e-15
2.34576e-15
2.32036e-15
4.35222e-16
1.75782e-15
3.04351e-15
3.57085e-17
4.20783e-15
3.90357e-16
9.06175e-16
1.75896e-15
2.05523e-15
3.55583e-16
5.22548e-15
-9.02835e-16
-8.88964e-15
3.86976e-15
-8.58171e-15
3.04862e-17
-1.73209e-15
7.66308e-15
-4.3241e-15
6.12084e-17
-3.00502e-16
6.72295e-16
6.09141e-16
7.7536e-16
3.29685e-15
-2.9672e-18
-1.098e-16
1.72588e-15
2.70305e-15
4.29166e-16
4.0652e-15
1.96331e-15
5.12779e-15
2.12526e-15
1.27243e-15
-1.45016e-15
7.77198e-17
-1.21238e-15
5.01807e-15
-1.96572e-15
5.90883e-16
4.39005e-16
4.47898e-16
7.45709e-16
7.24568e-16
-5.91765e-16
5.69582e-16
-1.79101e-16
4.09947e-15
2.5477e-15
-1.79994e-15
2.05769e-16
2.85979e-15
-6.25271e-15
2.1074e-15
-2.39752e-15
2.06579e-15
-1.68016e-18
-2.95111e-15
3.52113e-15
8.31477e-16
-4.98278e-16
3.71746e-16
2.20567e-15
6.23097e-16
2.66292e-15
-4.49369e-16
1.18716e-15
-3.28532e-16
-4.63875e-16
-5.23472e-16
-6.27624e-16
-9.16358e-16
1.77975e-15
8.74947e-16
-5.47345e-15
-3.04596e-15
1.4047e-16
-2.55804e-16
5.1792e-15
-3.26062e-15
6.86727e-16
1.07062e-15
2.03546e-15
1.21128e-15
-1.2116e-15
-6.70981e-16
-5.23834e-15
7.26867e-16
5.91535e-17
1.52853e-15
-5.4471e-17
-2.96795e-15
-1.34142e-15
2.68139e-16
1.04806e-15
2.47475e-15
3.60833e-15
5.18816e-16
-7.08227e-16
-9.07001e-16
4.04864e-16
2.74606e-16
-2.71804e-16
8.10176e-17
1.8547e-15
-5.34634e-16
-7.58231e-17
-8.4961e-16
1.36071e-15
-2.16033e-16
7.89057e-16
6.81524e-16
2.95944e-16
-2.77995e-16
-2.5373e-15
-6.85808e-16
-4.43981e-16
-2.31196e-16
5.13775e-15
-1.53894e-15
1.21656e-15
-1.57685e-16
-9.09368e-16
-1.59264e-15
2.41868e-16
-2.48438e-16
-4.00554e-16
1.40653e-16
1.05191e-15
-9.45281e-16
-8.48307e-17
-2.65713e-17
-1.16819e-15
2.43713e-16
-2.04079e-16
6.31469e-17
-5.33684e-16
-2.62133e-16
-8.41129e-16
1.28683e-15
-3.82388e-16
-2.94513e-16
1.08702e-15
-1.89803e-16
9.52553e-16
1.36263e-15
-8.07628e-16
-9.20945e-16
2.31592e-15
-1.47575e-15
-4.6518e-16
-8.63001e-16
-2.09145e-16
9.49984e-16
2.81035e-15
-6.17119e-17
6.81971e-16
-6.02059e-16
5.0511e-17
2.432e-15
1.19473e-15
-1.86453e-16
3.4921e-16
1.21127e-15
7.72627e-16
-8.80881e-17
-3.04868e-17
-1.18292e-16
3.44819e-15
8.66624e-16
6.68508e-16
1.09785e-16
-4.0455e-16
-2.47239e-15
-4.45469e-16
-2.2655e-17
2.05962e-16
-4.35173e-16
4.49513e-16
-5.61093e-16
-7.81353e-16
9.79008e-16
-2.1277e-15
-2.07081e-16
-1.38675e-15
-2.9472e-15
9.65097e-17
8.82205e-18
2.03796e-15
2.08486e-15
-1.2638e-15
-4.9534e-16
-8.12643e-16
-1.78015e-15
2.72348e-15
-6.22089e-16
-1.48549e-15
-3.51135e-16
-5.79779e-16
2.0684e-16
-1.01166e-15
5.34526e-16
-2.28871e-15
-2.68393e-16
1.50318e-15
-1.09331e-15
-8.25432e-16
2.48472e-16
7.17281e-16
1.30245e-16
5.043e-16
1.87941e-15
-1.87851e-15
-1.92445e-15
4.47035e-16
3.40745e-17
-9.78499e-16
-25.9503
-19.2153
-3.84824
5.37192
7.67256
12.6344
19.2172
8.65118
-16.0505
-36.9715
-45.5637
-45.531
-41.4642
-35.8052
-31.5789
-35.4397
-43.0903
-25.0225
46.69
139.699
156.405
72.4968
-29.5835
-104.478
-137.604
-141.755
-128.449
-105.117
-69.3371
-22.5182
23.584
58.6309
75.5487
71.1429
54.3312
42.8567
32.4878
14.8718
-0.527643
-16.1648
5.27278
2.55433
1.3079
1.99211
2.68131
2.14171
-0.23689
-2.81616
-2.18145
1.5214
4.39482
4.03976
1.73304
-0.835478
-2.61769
-2.73577
-0.794198
2.1102
2.92699
-0.73409
-4.46795
-3.2595
2.7805
7.42308
5.39781
1.17511
-1.58731
-2.33598
-1.92321
-1.15166
-0.44699
-0.0382036
-0.132802
-0.766945
-1.27196
-0.54022
-0.355505
0.17363
3.64033
6.34593
4.67493
2.71214
0.368092
0.889763
3.12693
4.29269
2.54597
-4.87826
-10.2446
-7.21142
-0.184711
1.84915
-2.29209
-8.84174
-14.803
-17.7427
-13.9947
-0.37748
17.6373
20.8715
-0.163978
-15.3099
-3.5427
16.9038
16.2946
0.158978
-15.8024
-23.6768
-22.6527
-16.081
-8.65101
-2.90439
0.205219
-0.920978
-4.27659
-2.84995
-0.010628
-2.18795
-1.5446
2.81651
1.11002
1.19003
0.0387175
-0.598251
-0.12782
0.52083
0.843562
-0.598997
-3.13408
-3.57325
-1.43255
0.538279
0.0107519
-2.29179
-4.76128
-6.01852
-5.08544
-1.20558
5.67233
10.165
3.3116
-6.21101
-4.64052
5.45848
9.55936
4.82315
-1.73383
-5.74522
-6.69684
-5.61085
-3.84166
-2.27108
-1.27336
-1.56177
-3.53052
-4.05477
-1.96961
-1.38329
-1.86876
-0.554262
0.0750313
0.199646
0.0971405
-0.0415221
-0.0285219
0.0567363
0.186529
0.212073
-0.220298
-0.59048
-0.543065
-0.132536
0.0647773
-0.130156
-0.429725
-0.568573
-0.430729
-0.110652
0.72581
2.41044
1.93592
-0.422642
-0.874283
0.432669
1.56565
1.30271
0.468006
-0.0640714
-0.20661
-0.159129
-0.0128733
0.17898
0.345454
0.346984
-0.147038
-0.858801
-0.675835
-0.332746
-0.357131
-0.234353
0.0139539
-0.0455096
-0.0594608
-0.00336183
0.0295886
0.00815526
0.00668263
0.0959065
0.0573241
-0.0207843
0.0332004
0.00974178
0.00075642
0.0219923
0.0380761
0.0101756
-0.0141741
-0.00135411
0.0423415
0.467579
0.906114
0.208469
0.276714
0.167696
-0.0364246
0.019823
0.0346248
0.0414915
0.103183
0.0957276
0.0341122
0.00813251
0.0200274
0.0324841
0.109825
-0.0087831
-0.0687137
0.00693646
0.0131825
-0.00453197
0.0333584
-0.0127467
-0.0669476
-0.016746
0.03166
0.0244071
-0.00315261
0.0286948
0.0995959
0.00566467
0.0756133
0.159321
0.107668
0.0590764
0.0164177
-0.0300175
-0.0327291
-0.0266318
0.0243185
0.0653698
0.398165
0.247746
0.207049
0.225929
0.103305
0.101165
0.0327177
-0.001866
0.0198476
0.0379638
0.010325
-0.0393539
-0.0643974
-0.112574
-0.0542371
0.045419
-0.00643491
0.0341667
0.063134
0.0556744
0.0320413
0.0151822
-0.0196225
-0.0100585
0.0160127
0.0163683
0.00514556
0.00438517
0.0566817
0.0566322
-0.0065243
0.0867905
0.115751
0.0587015
-0.00571021
-0.0332655
-0.00994635
-0.0088079
0.0127928
0.0285197
0.112895
0.210512
0.113988
0.155917
0.168311
0.0928703
0.0150774
-0.00122646
-1.9211e-05
0.00278585
0.00639107
0.00417222
0.00849318
-0.0157089
-0.0575
0.0143519
0.0199208
0.00294441
0.0329848
0.0467995
0.0180879
0.0131574
0.0019765
-0.00415006
0.00120241
0.00417906
0.00533948
0.00235101
0.00798061
0.039492
0.00677516
-0.00237945
0.0478203
0.0394542
0.000609027
-0.0116352
-0.00109584
-0.00545908
0.00104828
0.0148019
0.0248918
0.108872
0.0537071
0.0790497
0.102499
0.0396209
0.00443092
-0.000173937
5.97142e-06
-3.42244e-05
0.000225453
0.000190602
0.00228183
0.00800184
-0.0103219
-0.00748621
0.0167919
0.00201068
0.00444941
0.0177177
0.00626698
0.00622128
0.00221783
-0.00306561
-0.00235242
0.000259688
0.00178713
0.00291802
-0.000902921
0.00576707
0.0123292
-0.0107086
-0.000889156
0.0150835
0.00776637
0.0024463
0.00148682
-0.00277795
-0.00153406
0.00419966
0.00482643
0.0362499
0.0147012
0.0347231
0.0481857
0.01224
0.000465336
-0.000156023
1.34789e-05
-2.99594e-05
-9.67959e-06
-7.72387e-05
-0.000324308
0.00092664
0.0003091
-0.00271768
0.00294915
0.00357367
-0.000572273
0.00260852
0.00110524
0.00180791
0.000656133
-0.00112193
-0.000929891
-8.53889e-05
0.000225647
0.000803972
0.000460516
-0.00115322
0.00294305
-0.00304293
-0.00802913
0.00199932
0.00462794
0.00287858
0.00111961
-0.00014314
-0.000124801
0.00108827
0.00134526
0.00506427
0.000849841
0.0134034
0.0146639
0.00162322
-0.000402045
-0.000211002
-1.8682e-05
-8.32411e-07
2.9704e-07
7.07782e-06
-2.86614e-05
-1.46543e-05
0.000146561
-0.000242185
6.8882e-06
0.00103681
0.000257848
-0.000159044
1.90178e-05
0.000324028
7.79963e-05
-0.000154543
-0.000122014
-7.7021e-06
5.83436e-05
2.29121e-05
0.000208134
-0.000362304
4.74272e-05
-0.00026076
-0.00243452
-0.000189423
0.00101431
0.000407883
0.000139716
-1.39846e-05
0.000150715
0.000268889
0.000857385
-0.00167406
-0.000871622
0.00270784
0.00136784
-0.000279573
-0.000243441
-3.58453e-06
5.30415e-07
4.15705e-08
2.59445e-08
-5.57039e-08
7.22918e-07
-4.66727e-06
2.00212e-05
-1.40776e-06
-9.28915e-05
3.71741e-05
0.000182384
-2.64975e-06
-3.58325e-06
5.64749e-05
9.34926e-05
2.17033e-06
-4.90264e-07
-2.2639e-07
2.66314e-07
4.75046e-07
4.87367e-06
-4.53723e-06
-7.97425e-05
9.29182e-07
-0.000131117
-0.000207928
7.00346e-05
2.74216e-06
-8.21557e-06
-1.12599e-05
0.000125389
-4.72401e-05
0.000264091
-0.000969322
-0.000304156
1.1216e-05
-0.000232698
-0.000114228
3.06652e-06
2.15083e-07
1.77472e-09
-1.38191e-11
-9.60416e-10
1.04367e-08
2.27314e-08
1.04173e-08
-2.25112e-07
1.3069e-06
1.03823e-07
4.30965e-07
4.65627e-06
1.32968e-05
-2.7665e-06
3.01408e-07
4.94379e-06
1.6845e-06
9.40262e-08
-2.34343e-11
-1.86118e-09
2.08683e-08
7.23939e-08
4.72969e-07
-1.15843e-07
9.6815e-07
-6.55372e-06
-8.37018e-06
-1.42184e-06
-3.60187e-07
6.00383e-08
-6.83787e-07
5.02047e-08
-4.6427e-07
-6.29365e-06
-0.000338109
-1.81854e-05
-1.77587e-06
-4.66063e-05
1.18526e-07
-1.69909e-07
-1.92587e-08
-7.47473e-10
9.71828e-13
1.60157e-11
-1.23175e-10
-5.23678e-10
4.91559e-10
8.17061e-10
-4.76762e-09
2.5683e-10
-2.64547e-09
2.90417e-08
-6.54513e-07
-1.91065e-08
-1.91517e-08
4.06613e-08
1.65194e-08
9.70766e-10
3.93917e-11
-8.54872e-12
-1.38207e-10
1.03168e-09
-1.12702e-09
-5.07972e-10
7.38276e-09
-5.70161e-09
-8.5376e-08
-2.05339e-08
-1.98824e-09
-3.0296e-10
-3.27726e-09
6.44699e-09
-2.2922e-08
7.42979e-07
-6.4629e-07
3.32903e-06
2.42014e-06
-1.12971e-06
-1.9607e-07
-1.15069e-08
-3.42833e-10
-4.71194e-12
1.18825e-13
-6.09656e-14
4.98764e-13
4.61007e-12
-6.56162e-12
1.89021e-12
8.50393e-12
6.8853e-12
-6.19624e-11
2.55293e-10
-1.80179e-09
-8.01162e-11
-4.26868e-10
-6.01646e-10
-6.14311e-11
3.3619e-12
4.15654e-13
4.55381e-13
-2.33211e-12
6.93199e-13
-7.05072e-13
1.12889e-12
-6.72482e-12
7.18048e-11
-6.09725e-10
-1.3058e-10
-2.88302e-12
-2.16631e-12
5.55688e-11
-8.33917e-11
-2.22454e-10
2.55784e-09
-8.42652e-11
5.63283e-09
-8.63863e-09
-2.15201e-08
-2.22367e-09
-7.3424e-11
-8.76091e-13
1.24653e-14
-1.41339e-16
5.14936e-16
2.45136e-15
-2.04867e-14
1.97132e-14
-4.70979e-14
-4.17072e-15
1.78842e-14
-4.65424e-13
2.5817e-12
-7.81041e-12
-2.3246e-13
-1.79235e-12
-4.96738e-12
-5.52543e-13
-3.29758e-15
2.28104e-16
-3.37713e-15
1.1699e-14
-3.12759e-14
-3.32766e-15
-9.4563e-16
-6.02358e-14
6.39013e-13
-7.07184e-13
1.94781e-13
8.44297e-14
7.39738e-15
-5.50968e-14
-2.84702e-13
4.32225e-12
-1.67069e-11
9.13089e-14
6.40616e-12
-2.67693e-11
-4.4105e-11
-2.62063e-12
5.66957e-14
6.14127e-15
-1.07643e-15
-1.5627e-15
2.73258e-15
-4.69032e-15
8.04313e-15
7.76582e-15
1.33537e-15
-1.72738e-14
-3.27453e-15
-1.91081e-15
2.9113e-14
-8.19385e-14
-8.18782e-15
7.21148e-16
-1.69726e-14
-4.60982e-15
1.17446e-15
1.66368e-16
2.20844e-16
8.83171e-17
1.27948e-15
1.43654e-17
3.21379e-15
1.40733e-15
1.13027e-14
2.48854e-14
4.45034e-15
-3.98204e-15
1.31274e-15
3.67818e-15
3.96844e-15
-8.55509e-15
3.14053e-14
6.14375e-15
-1.20717e-14
1.18485e-13
3.40247e-13
7.85893e-14
6.25609e-15
6.37666e-16
-1.20583e-15
-2.78643e-16
3.63204e-15
2.39222e-15
4.27418e-16
-6.75398e-16
1.12589e-14
-1.56809e-14
-2.14841e-15
-3.01702e-15
6.84539e-15
9.83504e-15
1.87501e-15
-1.92956e-15
5.24567e-16
-2.33988e-15
-1.5649e-15
1.12841e-15
4.95072e-16
-1.21765e-17
-1.34196e-15
2.85011e-15
6.13071e-16
6.97992e-16
-2.65823e-16
1.02272e-15
-4.50357e-15
1.52148e-15
3.03176e-15
1.06526e-15
-4.33151e-16
1.92454e-15
5.71584e-15
-5.36348e-15
-1.23149e-15
-7.05977e-16
8.06475e-15
-6.15479e-15
1.39817e-15
-3.23317e-16
-3.7692e-17
-5.88301e-16
-4.40044e-16
4.47297e-15
-5.28316e-16
-4.8108e-15
6.9548e-15
1.61247e-14
-4.41574e-15
1.08234e-15
-3.57781e-15
2.63164e-15
6.17753e-16
1.0196e-15
1.07322e-15
8.92564e-16
-4.23546e-16
1.31271e-16
9.47e-16
1.43105e-15
-9.48301e-16
-1.15291e-15
-2.05452e-15
7.76781e-16
4.61179e-15
1.69217e-15
-1.64019e-15
-1.48492e-15
-1.38322e-16
3.21783e-17
2.25789e-15
6.20318e-16
2.29486e-15
-9.04957e-16
1.97706e-15
-4.60546e-16
4.37735e-15
-1.23847e-15
-1.51802e-15
-1.09697e-15
2.03138e-15
7.70987e-16
1.64381e-15
-1.57563e-15
-2.74533e-16
-2.03899e-15
6.79468e-15
5.99429e-15
5.01292e-15
-1.68199e-15
-1.01565e-15
2.74216e-16
1.84347e-15
-1.83773e-15
1.09536e-15
-2.52212e-15
6.34894e-16
7.91202e-16
1.01288e-15
6.55089e-16
-1.4177e-15
7.79509e-16
-1.50506e-15
2.69688e-15
1.89434e-15
-4.01517e-16
2.47873e-15
-6.49989e-16
-6.07573e-16
1.81297e-16
-2.93155e-15
2.61609e-15
1.22199e-15
9.93974e-16
-9.97132e-16
-7.75322e-17
2.90573e-16
1.56969e-16
-1.19789e-15
-2.76933e-16
1.64274e-15
2.93248e-15
-1.4204e-15
7.03316e-15
1.56422e-16
-9.9716e-16
2.75347e-15
-6.70805e-16
1.46917e-15
2.52425e-15
-9.61904e-16
-5.53552e-15
-1.23063e-15
6.47925e-16
3.71169e-15
-3.96618e-15
-9.90513e-17
2.63655e-15
6.76232e-16
-4.01256e-16
3.56782e-16
-1.04551e-15
6.13096e-16
3.84308e-17
1.14939e-15
-8.42963e-18
-1.06433e-15
3.01771e-16
-1.37763e-15
4.95103e-15
4.86902e-16
-2.60999e-15
1.87322e-15
-2.70068e-17
6.9412e-16
-2.6439e-15
-3.01798e-15
1.78092e-15
-1.83084e-15
1.94309e-15
1.44817e-15
1.07438e-15
5.80661e-16
2.59324e-15
3.48097e-15
2.05296e-15
4.09442e-15
2.51683e-15
-5.23738e-15
2.70195e-15
1.44036e-15
2.30256e-15
2.98673e-15
2.96725e-15
-8.7529e-16
-8.10838e-17
-3.40178e-15
1.92517e-15
-9.02698e-16
-1.97172e-15
-1.32384e-15
-1.47451e-15
1.05294e-15
-5.13622e-16
7.96314e-16
-1.29783e-15
2.15543e-15
-1.53243e-15
-1.17924e-15
4.61986e-16
-3.03251e-16
-1.05527e-15
1.73519e-16
3.2597e-15
-1.99517e-16
2.03353e-17
5.57927e-16
-5.00026e-16
3.05916e-16
6.02676e-16
-5.81631e-16
-1.9577e-15
-5.50242e-16
-8.48631e-17
4.19438e-16
4.25147e-16
-1.25485e-15
1.01193e-15
-1.91003e-15
-1.15431e-15
3.04339e-15
1.42661e-15
-4.53771e-16
-4.72992e-16
-1.48828e-15
3.09451e-16
-4.41493e-16
-3.00886e-16
9.37805e-16
1.02524e-15
2.87911e-16
1.36525e-15
-1.38508e-15
-2.16023e-17
2.64906e-16
2.80921e-16
8.3519e-16
1.47389e-16
4.60449e-15
-1.04337e-15
2.30395e-15
7.5588e-16
-7.23396e-16
1.1123e-15
-1.52109e-16
3.93105e-16
1.01223e-15
-8.67363e-16
-2.80433e-15
3.82207e-16
-5.02209e-16
-7.86486e-16
3.19774e-16
-2.19555e-15
-6.92099e-16
-1.84668e-15
4.7329e-16
-1.06431e-15
-1.40892e-16
1.79806e-16
1.02606e-15
-1.59477e-16
-8.36823e-16
4.68618e-16
2.09241e-15
5.03961e-16
8.06651e-17
-4.6101e-16
-7.07115e-16
8.26421e-16
1.63733e-16
-1.28824e-15
-1.77537e-15
2.38956e-15
-2.15022e-16
1.59519e-16
4.45443e-16
5.68938e-16
-3.70986e-16
3.52322e-15
-6.19366e-17
8.12785e-16
4.08931e-16
2.23516e-16
-8.32676e-16
-7.18861e-16
-5.31288e-17
-4.74319e-16
-9.37792e-16
-6.58201e-16
-7.71524e-16
-1.00424e-16
2.8879e-16
-1.34329e-16
-3.38919e-15
-1.59219e-15
1.5436e-15
1.23032e-16
-1.51748e-15
7.29651e-16
2.31359e-17
-2.48946e-16
1.89066
16.3651
23.4315
12.4369
-6.88044
-20.652
-24.2369
-19.7976
-13.411
-12.4864
-23.4411
-39.5726
-53.8007
-66.166
-80.7391
-99.2608
-115.45
-113.406
-74.9489
8.36607
100.825
107.798
19.8313
-62.5601
-106.828
-113.045
-90.17
-57.396
-31.2066
-16.4336
-10.6374
-11.2803
-19.9293
-42.6071
-70.1276
-62.6024
-9.52048
25.7182
18.4235
2.15385
-4.2781
-3.8898
-1.12606
2.46198
4.42963
3.6749
1.06695
-1.60189
-3.22062
-3.24112
-1.85905
-0.0874665
0.902957
0.85195
0.314283
-0.145669
-0.330596
-0.348754
-0.469818
-0.735518
-2.0472
-4.509
-2.7592
4.51567
8.29697
5.77266
2.29654
0.21055
-0.668787
-0.930402
-0.958654
-1.12503
-1.81936
-3.05269
-3.77099
-2.57347
-1.99445
-4.81453
-5.96459
-4.53982
-2.81371
-2.70993
-1.30874
2.26829
4.794
3.61004
-0.603281
-4.77188
-7.32045
-8.97878
-9.45893
-8.72312
-8.73706
-10.7986
-13.8359
-15.7144
-14.9874
-10.6263
-3.37568
3.04723
4.82653
-7.80825
-20.3664
-8.96439
7.48904
7.67798
-1.6734
-10.2903
-14.9994
-16.5435
-15.9607
-14.0748
-13.0126
-15.2079
-17.7455
-12.4074
-1.74689
-0.730227
-5.85267
-5.2461
-0.482561
-0.446041
-0.70154
0.0118423
1.01154
1.1169
0.101898
-1.19666
-1.7855
-2.03864
-2.32742
-2.33802
-2.38309
-2.80507
-3.16942
-3.09171
-2.48739
-0.95118
2.31294
5.5639
5.24975
-0.341382
-7.7395
-6.45979
1.88116
5.18028
1.75504
-2.89402
-5.72587
-6.75685
-6.74251
-5.95774
-4.82411
-4.60349
-5.34496
-4.49112
-1.41893
0.23515
-0.829851
-1.25113
-0.0675843
-0.0568113
-0.161475
-0.108401
0.0892567
0.220744
0.160322
-0.0631964
-0.281351
-0.398105
-0.463162
-0.471274
-0.433455
-0.3808
-0.286326
-0.157349
-0.0166558
0.144376
0.539134
1.56723
2.18857
1.11787
-0.776368
-1.35383
-0.0331067
1.31198
1.23848
0.391726
-0.270647
-0.527667
-0.544598
-0.432195
-0.204969
-0.125481
-0.428992
-0.68129
-0.371336
4.99402e-05
-0.0372565
-0.160654
-0.0015517
0.0295765
0.0477101
0.0328635
0.00015236
-0.00744338
0.00830599
0.017426
0.00919108
-0.0125816
-0.0209483
0.000485327
0.00875508
0.00486605
0.010729
0.0184228
0.0128627
-0.00560025
-0.018006
0.146978
0.683255
0.589342
0.0733515
0.12498
0.0248079
0.0580453
0.145854
0.104593
0.0324596
-0.00373065
-0.00861869
0.0137358
0.082573
0.12774
0.0745358
-0.00809332
-0.0153484
-0.00443434
8.40875e-05
-0.0224698
-0.0024661
0.0202009
0.0699963
0.0827605
0.0343
-0.0195579
-0.0410786
-0.0389346
-0.0164358
0.0156203
0.0384364
0.0779721
0.0894212
0.0608977
0.0418658
0.0362011
0.0138814
-0.000925255
-0.0160827
-0.0167371
0.139969
0.344858
0.0757772
0.121992
0.126931
0.0327264
0.0222499
0.0167234
-0.0112399
-0.0439882
-0.0646649
-0.0620768
-0.013727
0.0477255
0.0576226
0.0114101
0.0102247
0.0189447
0.00237517
-0.00416642
0.000527611
0.00199096
0.0381556
0.0571874
0.0354326
-0.000664545
-0.0283265
-0.0444417
-0.0469207
-0.0226374
0.00488573
0.0392972
0.0763993
0.0675148
0.0393254
0.0211689
0.0073142
0.000258873
-0.000340688
-0.00482183
0.0051018
0.124936
0.0902885
0.0344498
0.0914561
0.0835899
0.0440777
0.0213665
0.0047652
-0.00527705
-0.00951136
-0.0113986
-0.00346953
0.0144377
0.0362312
0.0333278
-0.000791896
0.00563838
0.00640767
-0.00253721
-0.000284276
-0.00142329
0.00842124
0.0161553
0.0081706
-0.000583053
-0.00825382
-0.0153489
-0.0241473
-0.0238965
-0.00963721
0.00788081
0.0407139
0.0528687
0.0271632
0.005465
0.000270336
0.000759025
-0.000671257
-0.00135083
-0.00188487
0.0280154
0.0448382
0.0167312
0.0459014
0.0537026
0.0280483
0.0117634
0.00423883
0.00055786
-0.000374136
-9.03065e-05
0.000405167
0.000902915
0.0024892
0.0144947
0.00876624
-0.00158573
0.00194125
-0.00173441
-0.000874209
-0.000517022
-0.000493159
0.0012863
0.000779809
0.00137362
0.00141253
-0.000868172
-0.00481935
-0.00739226
-0.0070268
-0.000486135
0.0102645
0.0152631
0.00753906
0.000895769
-0.000338323
0.000406978
-2.90191e-06
-0.000628157
-0.000445795
0.00512768
0.0110793
0.00470684
0.018954
0.0215178
0.0109472
0.00363559
0.000590799
-0.000198026
-5.69608e-05
8.88168e-06
-9.00354e-06
6.93479e-06
-0.000165597
0.000695277
0.0024727
-0.00030221
4.23908e-06
-0.00106779
-0.000399668
7.13851e-05
9.35789e-05
0.00178031
0.00257284
0.00212017
0.000798246
-0.000618148
-0.00109078
-0.00110162
-0.00141588
-0.00104693
0.00100251
0.00107809
0.000442403
0.000166902
7.75682e-05
0.000174905
-8.62246e-05
-8.88818e-05
-0.00012039
0.000782541
0.00135329
0.000539934
0.00553707
0.00580597
0.00187843
0.000247633
-0.000152455
-0.000159212
-3.38351e-05
-1.72318e-05
-7.52282e-06
1.71576e-07
-1.12526e-06
3.68479e-06
0.000126103
-0.000101078
7.20274e-05
-0.000178014
-7.29521e-05
1.88728e-05
0.000233827
0.000758035
0.00112546
0.000773831
0.000368632
-2.34718e-05
-0.000145351
-0.000152661
-0.000308821
-0.000382388
-0.000150886
-1.34187e-05
-0.00010007
5.68461e-07
9.7366e-07
2.82664e-06
1.10879e-05
-1.70617e-06
-1.28686e-05
6.15719e-05
4.32398e-05
-3.7295e-05
0.000694249
0.000483902
-1.28218e-05
3.8747e-06
4.50027e-05
-1.61458e-07
-1.73267e-08
5.93961e-08
5.11696e-08
4.90082e-07
-6.20303e-06
9.17374e-07
2.54965e-06
-1.5375e-05
1.83014e-05
6.6004e-05
-1.51415e-05
-9.5208e-06
-0.000106722
-1.85715e-05
9.94606e-05
8.98949e-05
0.000267805
2.62286e-05
9.11103e-06
-1.70023e-06
-3.56469e-06
-6.13284e-06
-2.48119e-06
-9.77464e-07
-1.14846e-06
-1.52123e-06
-2.26319e-07
3.32547e-07
-2.94722e-07
3.09241e-06
8.48582e-06
-6.51584e-05
-0.000110821
-1.61728e-05
-3.43165e-05
6.98082e-06
0.000111646
9.78143e-06
-3.40398e-07
-1.53862e-08
6.58259e-10
2.00947e-09
5.80685e-10
5.56689e-10
1.01659e-07
-6.21531e-07
-1.73495e-10
-2.54617e-07
-8.1877e-07
4.36832e-05
2.66175e-08
-3.23188e-06
-3.0795e-05
-1.69472e-05
-2.46891e-06
3.00643e-06
2.08203e-06
8.35089e-07
1.78211e-07
8.91999e-09
-1.87739e-09
-2.5093e-08
-3.9068e-08
-1.49624e-08
-6.03697e-09
-3.66122e-09
7.63698e-10
-8.85238e-10
4.05413e-09
9.37168e-09
-7.90019e-07
-4.92053e-06
-1.80314e-05
2.8019e-06
9.71248e-06
7.58952e-06
-4.23879e-07
-2.90524e-07
-1.60569e-08
-1.78692e-10
7.554e-12
-5.98978e-11
-7.98996e-12
-3.49601e-10
-1.04337e-10
3.39217e-09
-1.27851e-09
1.62735e-08
-2.03593e-07
1.9907e-06
-1.70819e-07
-2.79813e-07
-9.4743e-07
-1.70865e-07
-2.56658e-08
-1.722e-09
8.51779e-10
8.12342e-11
-8.58131e-11
-1.4524e-11
-2.15248e-13
-2.97893e-11
-9.78753e-11
-6.12962e-11
-1.57595e-11
-6.01981e-13
-1.77705e-12
4.50281e-12
-6.80012e-12
-6.78044e-10
4.91552e-09
9.55497e-09
2.46454e-07
1.73257e-06
3.63394e-08
-2.36904e-07
-4.9163e-08
-3.00239e-09
-5.89215e-11
1.65273e-13
-1.52536e-13
7.06646e-13
-6.01202e-15
7.4775e-12
-1.05902e-11
-5.29336e-12
-3.73288e-11
5.61381e-10
-5.89522e-09
5.30439e-08
-4.05889e-09
-1.50254e-08
-6.16185e-09
-6.69736e-10