/*--------------------------------*- C++ -*----------------------------------*\
| =========                 |                                                 |
| \\      /  F ield         | OpenFOAM: The Open Source CFD Toolbox           |
|  \\    /   O peration     | Version:  5.0                                   |
|   \\  /    A nd           | Web:      www.OpenFOAM.org                      |
|    \\/     M anipulation  |                                                 |
\*---------------------------------------------------------------------------*/
FoamFile
{
    version     2.0;
    format      ascii;
    class       volScalarField;
    location    "50.4676134421789371";
    object      GradTW;
}
// * * * * * * * * * * * * * * * * * * * * * * * * * * * * * * * * * * * * * //

dimensions      [0 -1 -1 1 0 0 0];

internalField   nonuniform List<scalar> 
60000
(
-105.672
-78.1557
-38.2682
5.72889
48.3238
74.8785
70.6391
32.2014
-29.5776
-84.1829
-105.848
-89.1191
-47.5623
-3.37918
36.8347
78.3501
113.225
133.162
150.884
140.693
69.7555
-40.3479
-125.927
-152.16
-128.422
-89.8264
-68.6929
-73.7666
-77.3943
-37.018
43.6436
111.478
145.186
165.864
184.782
158.396
53.4444
-54.7961
-108.314
-117.947
5.78487
2.58766
-1.3708
-3.14253
-3.54958
-6.19203
-6.69367
-1.63787
5.9898
10.8538
10.4288
7.5511
3.72572
-0.899425
-5.28021
-8.05866
-8.03922
-5.65964
-3.22034
-0.954351
2.0671
5.5661
6.81707
4.89389
2.36266
0.305164
-0.844722
-1.01678
-0.740881
-0.411208
-0.153279
-0.332474
-0.921188
-1.3964
-1.59908
-1.94049
-2.0805
0.173922
4.47371
6.80408
7.83581
7.76281
1.62714
-1.71674
3.12422
3.42666
-6.0473
-11.2894
-7.06341
5.11636
13.3824
13.426
9.01502
2.28997
-2.60307
-3.13159
-1.70003
0.880094
2.88502
3.90623
8.72842
26.0224
44.8447
38.0187
15.7339
-7.00153
-23.2137
-31.4901
-30.4477
-18.3401
-0.376049
11.9632
14.1388
11.7209
9.48581
5.00799
-6.65599
-16.6342
-13.6699
-1.31913
3.10293
6.92964
5.08447
1.24149
0.6182
1.93179
-0.456168
-4.75904
-6.22768
-2.6916
3.95926
7.05983
5.80637
2.19735
-1.29241
-2.85912
-2.61422
-1.30242
-0.562486
-2.1791
-2.29157
3.13029
13.9193
15.8763
8.17987
-0.975601
-7.06403
-10.0583
-10.6576
-8.22016
-3.14498
2.11259
4.99202
4.2422
0.524463
-3.27217
-4.98743
-6.50283
-7.00552
-3.50038
-0.432038
1.09715
1.6413
0.873051
0.244619
0.266734
0.213764
-0.484044
-1.12177
-1.11981
0.0285783
1.31202
1.59982
0.956463
0.0169971
-0.561795
-0.703664
-0.275248
0.387306
-0.252327
-0.677488
-0.251068
1.6401
2.90076
1.81314
0.41295
-0.169293
-0.340584
-0.531162
-0.636822
-0.272285
0.402415
1.04733
1.3413
0.877424
-0.577269
-1.44648
-1.47815
-1.56724
-1.45229
-0.170029
-0.0161431
0.0316452
-0.00620952
-0.030211
-0.0293885
-0.0234478
-0.0012452
-0.070744
-0.143173
-0.144243
0.0390006
-0.070036
-0.229769
-0.0613971
0.173803
0.0651062
-0.0490927
0.528604
0.384045
0.0642457
0.558315
0.31477
0.00576002
-0.0139376
0.0314389
-0.0253061
-0.00469244
0.117108
0.120867
0.0952418
0.0645525
0.0149548
0.00657368
0.15356
0.174487
-0.0705841
-0.0626777
-0.0583464
-0.179298
0.0334107
0.0493359
0.0118477
-0.0641696
-0.0734004
-0.0620051
-0.0730066
-0.0428626
0.000687388
0.0215899
-0.0116549
-0.0228094
-0.0425759
-0.11917
0.0219473
0.223102
0.140815
-0.0340749
0.329825
0.660516
0.121953
0.485346
0.493304
0.133559
0.184158
0.0454043
-0.0198903
-0.0530791
-0.00930815
0.0351003
0.076266
0.0464361
-0.0714173
-0.15191
-0.131146
-0.005585
0.0214116
0.0296503
0.096244
0.0894025
0.0377643
0.0310747
0.0277704
-0.00287322
-0.01628
-0.0182694
-0.0284525
-0.0341259
-0.0154776
0.0033654
0.00584404
-0.0145605
-0.0136847
0.00616777
0.0511833
0.0514789
-0.0199137
-0.0467328
0.0795038
0.46265
0.283938
0.201096
0.475113
0.427082
0.207123
0.0114058
0.000557768
0.00296959
-0.00969393
-0.00173852
0.01922
0.0483746
0.00827676
-0.0577699
-0.0700053
-0.0369621
0.0012224
0.00207727
0.0190699
0.0447276
0.0125348
0.0125033
0.00958333
0.000822121
-0.00172327
-0.000987457
-6.74719e-05
-0.00447535
-0.00722955
-0.00480634
-0.00124306
-0.00608199
-0.0120863
0.00725625
0.0200937
-0.00635614
-0.0343472
-0.0504005
-0.0037805
0.10716
0.210662
0.0577605
0.331848
0.358395
0.0907258
-0.00428174
-0.00750436
0.00162186
0.000739523
-0.000779966
-0.000902383
0.0120612
0.0209919
0.00328922
-0.0138601
-0.0123119
-0.00355398
0.00124218
0.000693622
0.00662681
0.00171756
0.00293794
0.00216584
-0.000311336
-0.000473378
4.95218e-05
3.91012e-06
0.000814485
-6.94328e-05
-0.00172619
-0.00180271
-0.00164637
-0.0056574
0.00229677
0.00433953
-0.00302978
-0.000375132
-0.0185992
-0.00238759
-0.0121076
0.0257867
0.00220681
0.16779
0.178049
0.0277437
-0.00470242
-0.0009038
-0.000603032
5.31057e-05
4.17512e-05
-0.000583401
-0.00070535
0.00281834
0.00514659
0.000848173
-0.00170196
-0.00112877
0.000218518
0.000267153
0.000260252
0.000115036
0.000580689
0.000321749
-7.91111e-05
-0.000469306
-1.61124e-05
3.58744e-06
1.07079e-06
0.000433711
-0.000135722
-0.000622381
-0.000120901
-0.000592006
-0.00152306
-0.000817997
-0.000712338
0.00149032
-0.00191565
-0.00357869
-0.00578975
-0.0400383
-0.0112065
0.0584585
0.0537067
0.00456118
-0.00167041
-0.000526675
6.14746e-05
5.35029e-05
-1.35223e-06
7.37329e-06
-1.9365e-05
-0.000750391
2.10239e-05
0.000732722
4.73847e-05
-9.6937e-05
-4.8842e-05
8.35784e-05
-8.40287e-06
4.67527e-07
-4.78616e-05
1.05124e-05
7.88074e-06
1.98635e-06
4.75078e-07
4.67016e-06
4.31944e-06
1.92928e-06
1.79524e-05
-0.000202037
-1.08109e-05
0.000168698
-0.000801273
-0.00118895
-0.000252872
0.000287865
0.00100794
-0.00224031
0.000524574
-0.0229644
-0.00874696
0.013563
0.00788812
-0.000158876
-0.000465507
5.07506e-05
6.07455e-06
-6.56417e-07
5.79525e-07
-6.27809e-07
8.61842e-08
5.96968e-07
-3.95614e-06
8.70751e-07
4.46611e-07
4.62292e-07
-1.7926e-06
5.68036e-07
6.32026e-06
-1.90477e-06
-1.89151e-06
2.75588e-06
1.21134e-06
1.2834e-07
8.31221e-09
-1.25103e-08
2.89551e-07
6.55562e-07
2.50165e-06
8.47278e-06
-0.000243637
2.56325e-05
-0.000557884
-0.000401111
-0.000331133
-4.29476e-05
9.41911e-05
-0.000420566
0.000448742
-0.00504045
-0.00414313
0.00258566
0.000367695
-0.000464532
8.51757e-05
7.2905e-06
2.06584e-07
1.00186e-08
-3.71311e-09
6.63249e-09
4.08476e-09
8.33373e-10
9.42959e-09
-1.69103e-09
-9.61451e-09
2.16811e-08
-1.15483e-07
-7.2957e-09
-2.12281e-07
-4.86222e-09
-2.39098e-08
3.6994e-08
2.1944e-08
1.82907e-09
5.41447e-11
-5.60873e-12
5.33598e-10
-2.3593e-08
1.20923e-07
7.00388e-06
-1.58937e-05
-5.62934e-06
-1.5197e-05
-1.80499e-05
-5.10462e-06
9.43336e-06
6.36957e-06
1.974e-06
1.7397e-05
-0.000479856
-0.000968188
0.000571421
0.00011681
5.2768e-05
3.66462e-06
8.73093e-08
-1.09823e-09
-4.04861e-11
1.92917e-11
-2.15779e-11
-2.09395e-11
-1.75909e-11
5.79789e-12
4.84116e-13
3.52504e-11
7.9031e-11
-5.43388e-10
-9.04848e-11
5.33138e-10
9.74973e-12
-1.709e-10
-1.70494e-10
6.35224e-11
1.02659e-11
5.81578e-13
-6.33191e-14
-1.09107e-12
6.86096e-11
-7.03006e-10
-6.95942e-10
-2.16998e-07
1.55073e-06
-6.95727e-08
-2.29649e-07
-4.32879e-08
5.65925e-09
-8.33728e-08
-2.53758e-07
5.1158e-07
-2.11489e-06
-9.32602e-07
7.02326e-06
5.0652e-06
2.71983e-07
-7.97947e-09
-6.86471e-11
2.32989e-11
9.5958e-13
-4.79015e-14
1.30768e-14
6.57003e-14
5.40927e-14
-9.46874e-14
-3.46547e-15
-1.09636e-13
5.57269e-14
-8.7886e-13
-2.19253e-12
1.33362e-12
2.57264e-14
-1.59728e-13
-2.87034e-12
-5.7697e-13
4.56202e-15
4.20063e-15
-1.24736e-15
-1.35456e-14
5.8686e-15
9.58106e-13
-3.97534e-12
-7.14571e-11
3.37464e-09
1.73663e-09
-1.33532e-09
-1.32382e-10
-1.3582e-11
-2.25046e-10
8.00482e-10
-2.64436e-09
1.84237e-08
-1.93609e-09
8.07033e-11
7.85088e-09
3.91612e-10
-3.28851e-11
-1.24732e-12
-4.59291e-14
2.7321e-15
-3.01006e-15
2.55592e-15
-5.53877e-16
1.78186e-14
1.53531e-14
3.52002e-17
1.89551e-15
-2.95269e-14
1.30097e-15
-6.84436e-15
2.06708e-14
9.87561e-16
2.10455e-15
-4.94586e-15
8.10864e-15
-4.6641e-16
6.475e-15
-6.5113e-15
-9.66166e-16
2.27594e-15
1.52254e-15
1.52785e-14
4.25417e-14
1.92725e-12
1.61234e-11
2.75976e-12
1.27059e-12
4.06214e-15
-9.99747e-14
2.86138e-13
9.91484e-12
-4.03216e-11
3.52657e-13
-1.01336e-11
-3.60365e-12
4.99024e-12
5.23327e-13
2.4582e-14
-1.64896e-15
-1.40288e-15
4.17242e-15
-2.79096e-15
-3.38222e-16
1.58625e-15
-1.99768e-14
1.69752e-14
-1.18523e-14
1.67446e-15
-1.50777e-14
-2.28289e-15
4.13253e-15
-9.31864e-16
-4.44918e-15
-1.07537e-15
-1.66877e-15
5.14959e-16
-3.3411e-15
-2.57911e-15
6.88814e-15
-1.49032e-15
-1.51724e-15
3.00092e-15
3.34669e-16
-1.1821e-14
1.94114e-13
1.27603e-13
1.26171e-14
-5.93395e-15
-1.94945e-15
8.43416e-16
-3.75595e-14
8.15037e-14
-6.46402e-15
-3.01575e-14
1.17294e-14
8.45427e-14
3.96934e-15
-1.97299e-15
7.2126e-16
-3.35083e-15
-2.10233e-16
1.92579e-15
-1.73434e-15
-4.75696e-15
3.97832e-15
2.08108e-14
-6.47373e-15
-2.60934e-15
1.12662e-15
-6.26976e-15
-7.18903e-15
-1.47609e-14
-8.07795e-15
1.31689e-14
-3.48882e-15
1.77272e-15
-2.41352e-15
6.93587e-15
-7.92728e-15
-5.68785e-15
-2.31643e-15
-2.41548e-15
3.68982e-15
-3.75474e-15
1.92952e-15
1.05278e-14
5.86164e-15
-7.29974e-15
3.58088e-15
2.64582e-15
-4.02308e-15
1.64876e-15
-7.06566e-15
-1.01326e-14
-2.97477e-15
1.06267e-14
-3.69157e-15
-4.81308e-16
4.22391e-16
4.65864e-15
9.48211e-16
-2.31634e-15
-5.30113e-15
-2.82839e-15
-1.14691e-14
-2.6175e-15
-4.47488e-15
-1.05432e-14
-2.1073e-15
3.11909e-15
2.31057e-15
5.16012e-16
-8.73636e-16
-9.64359e-16
6.04916e-16
-9.7468e-16
4.35973e-15
-1.87812e-15
2.28685e-16
6.6524e-16
0
1.44408e-15
-2.61024e-17
-4.12018e-16
-5.37788e-15
9.18023e-15
4.44097e-15
2.06768e-15
-2.04715e-15
-8.67734e-24
1.55899e-15
-2.85971e-16
3.61527e-15
5.99322e-16
1.67774e-15
4.09302e-15
1.71336e-15
5.31497e-15
1.94732e-15
7.24262e-16
1.33855e-15
5.13404e-15
0
-8.17553e-18
3.15234e-15
-1.19882e-14
5.48391e-16
-8.77319e-15
2.92275e-16
-2.46546e-15
2.55151e-15
-2.16708e-15
8.75839e-16
4.93276e-16
-2.21288e-15
-2.14254e-16
1.90166e-15
5.7272e-15
-5.31548e-15
-9.22537e-17
-3.52423e-15
3.2039e-15
1.32377e-15
2.5456e-15
-3.2851e-15
-2.88179e-16
1.01246e-15
2.73852e-15
1.67297e-16
-2.00586e-15
-4.87865e-15
6.0215e-15
-4.66745e-15
1.81568e-15
5.36095e-16
1.30274e-16
-6.06393e-16
9.71366e-16
-2.42457e-15
2.30122e-15
-1.86178e-15
-2.52576e-16
4.0204e-15
-6.12847e-15
8.00606e-16
6.31501e-15
-1.00711e-15
4.18758e-15
-1.08924e-16
-1.0983e-16
-4.51038e-15
2.5737e-16
5.22268e-15
2.93534e-15
4.66252e-31
-3.29315e-16
9.68231e-16
2.55516e-15
4.07817e-15
-1.6525e-15
-4.59931e-16
-9.10188e-16
1.69308e-15
-9.30016e-16
-1.72286e-15
-1.33667e-15
2.43412e-15
-2.26246e-15
-5.39884e-15
-3.26428e-15
-1.23816e-16
-3.64361e-15
3.80012e-15
-1.06237e-14
2.67085e-15
2.11046e-15
3.5485e-15
5.44923e-16
-7.82323e-16
-2.12947e-15
-1.5755e-15
2.92078e-15
-9.40043e-16
4.20715e-15
1.47423e-15
-3.60116e-15
5.27338e-15
-3.87486e-15
1.58673e-15
2.00954e-15
1.10615e-15
1.40489e-15
-1.62732e-16
-3.03957e-15
1.58115e-15
8.40417e-17
-1.10453e-15
1.59165e-15
1.00678e-15
-2.65601e-15
-4.93532e-16
-4.18542e-15
4.38855e-15
3.78798e-16
-2.73461e-16
9.9983e-16
1.95055e-15
4.48425e-15
-6.00844e-16
-3.13934e-16
-9.21452e-16
-1.68071e-15
2.42903e-15
-3.01182e-15
1.21105e-15
-1.45594e-15
-1.10314e-15
-6.62441e-16
-3.1238e-16
2.25309e-15
-2.7816e-15
-8.42317e-17
-7.33105e-16
-2.27855e-15
-3.14518e-16
3.40097e-16
-1.09434e-15
1.15093e-15
-1.22337e-15
3.00356e-15
-1.9881e-15
4.60672e-16
-1.37896e-15
4.47921e-16
-3.20011e-15
8.63087e-16
-3.01676e-17
5.79665e-16
2.03301e-15
1.45455e-15
-3.81237e-16
-1.46089e-15
-8.53318e-16
-6.51916e-15
-1.54243e-16
1.81598e-16
1.33773e-15
-9.74592e-16
-8.61066e-16
-8.05415e-16
2.0777e-15
-1.16428e-15
4.37223e-16
6.43417e-15
3.95633e-15
6.50923e-30
7.11994e-17
2.9795e-15
9.72258e-16
-5.86939e-16
-1.16801e-24
-1.11133e-15
5.05641e-15
-8.35445e-16
-3.36679e-16
1.27965e-15
-3.00944e-15
-1.83725e-15
-1.52591e-15
-9.85634e-17
-1.08709e-16
1.47537e-15
1.0997e-18
4.50379e-17
-1.16543e-15
7.43354e-16
-4.31409e-15
-4.58423e-16
-2.20669e-15
-2.34115e-15
-1.22758e-16
-9.83716e-16
3.01994e-15
3.03821e-15
-1.69475e-15
-9.12143e-16
-9.37978e-16
-8.54648e-16
2.36988e-15
-1.02427e-15
-1.20095e-15
-3.69349e-16
-1.39496e-15
-6.46582e-16
-1.82148e-15
0
-3.90393e-15
-1.8214e-15
3.95527e-15
8.78026e-18
-1.30576e-15
-1.4347e-15
-1.12234e-15
2.16004e-15
2.64633e-15
2.01532e-15
1.66016e-15
-2.23047e-15
0
-5.65114e-16
-2.12124e-15
-41.6746
-33.3136
-8.93079
7.32388
11.188
17.9776
29.0533
15.3285
-22.8058
-57.0188
-71.7212
-71.8096
-65.0378
-55.3945
-47.5371
-51.7375
-64.3595
-44.6493
53.381
195.419
239.704
123.801
-33.9159
-153.491
-207.026
-214.163
-193.712
-159.615
-108.67
-40.6066
27.5393
79.3145
105.865
103.787
83.9345
69.3858
55.5745
26.8584
1.18082
-24.2854
7.58564
3.83057
1.78535
2.43769
3.32087
2.69494
-0.148238
-3.37043
-2.79377
1.70607
5.40206
5.16785
2.5867
-0.254582
-2.24963
-2.4957
-0.721647
1.85266
2.35554
-0.941584
-3.62249
-2.67613
1.39035
5.67196
4.43624
1.47419
0.0170762
-0.181572
-0.152955
-0.165677
-0.143325
-0.198179
-0.374836
-0.817269
-1.56591
-1.12148
-0.598424
-0.0286077
4.51199
8.66737
7.73505
4.64294
0.583688
1.14197
4.75199
6.79372
4.41701
-7.27996
-16.4836
-12.1955
-0.754804
3.11452
-3.1986
-13.6875
-23.3153
-28.245
-22.9526
-2.61456
25.2467
32.4096
1.47269
-23.9565
-7.48372
26.0714
27.6024
2.94455
-22.6152
-36.0161
-35.5293
-25.8907
-14.3886
-5.41218
-0.544477
-1.87642
-6.88182
-5.04175
-0.0435137
-3.16127
-2.67567
4.35534
1.85785
2.15884
0.166084
-1.08009
-0.354578
0.811574
1.47577
-0.851164
-5.38797
-6.42104
-2.79181
0.812085
0.0525903
-3.98081
-8.44981
-10.8867
-9.48381
-2.912
9.02914
17.8483
7.22245
-10.2575
-8.97294
8.54077
16.7538
8.92011
-2.78715
-10.1697
-12.0696
-10.2381
-7.07587
-4.17096
-2.21771
-2.43823
-5.72968
-7.05604
-3.64778
-2.41135
-3.3034
-1.16685
0.119918
0.396198
0.211192
-0.0765021
-0.0701836
0.0942928
0.334428
0.411926
-0.372195
-1.12082
-1.05702
-0.281758
0.127005
-0.233412
-0.828075
-1.12992
-0.891619
-0.287347
1.15889
4.18006
3.79132
-0.624595
-1.81007
0.578616
2.89718
2.50697
0.911445
-0.144195
-0.433748
-0.345107
-0.0704558
0.29281
0.620734
0.667908
-0.163671
-1.52953
-1.32291
-0.662566
-0.674724
-0.477746
0.0195337
-0.0564593
-0.0922509
-0.012746
0.0445404
0.0175164
0.0117694
0.155437
0.113349
-0.0515724
0.0209207
-0.00773989
-0.0103425
0.025594
0.0541095
0.0135185
-0.0244958
-0.00640148
0.0606168
0.688682
1.55161
0.410968
0.397064
0.305527
-0.0304199
0.0383121
0.0606545
0.060812
0.172114
0.182975
0.0904713
0.0460992
0.0644308
0.0814994
0.211348
0.0100986
-0.146523
-0.0132261
0.00662528
-0.0239182
0.0538189
-0.0116363
-0.108944
-0.0357928
0.0489764
0.0432628
-0.00305183
0.0399838
0.165656
0.0172955
0.104216
0.253893
0.176741
0.0976323
0.0329321
-0.0457748
-0.0544217
-0.047333
0.0336544
0.0903777
0.619804
0.451918
0.315978
0.394562
0.172012
0.16925
0.0618672
-0.00368079
0.0278589
0.0629569
0.0256825
-0.0540765
-0.0970992
-0.180981
-0.0993116
0.0833886
-0.00856687
0.0489217
0.102192
0.0926041
0.0537539
0.0276698
-0.0299051
-0.0206995
0.0246489
0.0280641
0.00990322
0.005622
0.0874475
0.102358
-0.0133188
0.131439
0.191808
0.103307
-0.00344297
-0.0556503
-0.0189145
-0.013703
0.0150436
0.0494879
0.160526
0.357066
0.187233
0.252878
0.280794
0.16529
0.0297455
-0.00191597
-0.000388754
0.00386169
0.00991945
0.00725839
0.0148218
-0.0193453
-0.0964803
0.01801
0.0402664
0.00209533
0.0516598
0.0779199
0.0301532
0.0220905
0.00459241
-0.00746338
0.00126638
0.00662764
0.008997
0.00443322
0.0105463
0.0634088
0.0171061
-0.00895882
0.0753063
0.0692919
0.00443242
-0.0196865
-0.00272579
-0.00802089
-0.0010089
0.025716
0.0326154
0.175253
0.0952385
0.11999
0.174122
0.0730293
0.00905703
-0.000336979
8.47855e-06
-7.63055e-05
0.000308146
0.000290852
0.00290385
0.0136822
-0.014975
-0.0154243
0.028883
0.00490788
0.0056002
0.0282515
0.00992032
0.0104797
0.00451213
-0.00484581
-0.0041775
0.000159954
0.00291754
0.0047933
-0.00129175
0.00744119
0.0214153
-0.0159739
-0.00453428
0.0250339
0.0141889
0.00426451
0.0028008
-0.00427869
-0.00341888
0.00679942
0.00638858
0.0564001
0.0282665
0.0495334
0.0833218
0.0233475
0.00108474
-0.000324049
2.61728e-05
-6.22823e-05
-1.09849e-05
-0.000117497
-0.000474933
0.0012926
0.000950116
-0.00442286
0.00460073
0.0066479
-0.00105371
0.00369393
0.0017509
0.00275185
0.00138364
-0.00173664
-0.00165197
-0.000162322
0.000335574
0.00136206
0.000837975
-0.00210342
0.00459916
-0.00367376
-0.0145609
0.00209895
0.00758518
0.00532572
0.0022802
-0.000291288
-0.00011559
0.00126834
0.00270586
0.00715773
0.00223199
0.0192891
0.0255274
0.00321731
-0.000639081
-0.000472913
-4.48294e-05
-1.32552e-06
1.67733e-08
6.01958e-06
-2.39509e-05
-3.0912e-05
0.000307893
-0.000364814
-5.9164e-05
0.00181736
0.000477795
-0.000373754
6.093e-06
0.000478215
8.64465e-05
-0.000279532
-0.000236755
-1.4533e-05
0.000130944
2.27699e-05
0.000447395
-0.000637225
-4.05141e-05
-0.000152571
-0.0043249
-0.000610953
0.0017768
0.000904044
0.000359886
-8.21991e-05
0.000223752
0.000204114
0.00196167
-0.00264878
-0.00172251
0.00424914
0.00253607
-0.000356979
-0.000561897
-7.33276e-06
7.33286e-07
5.65905e-08
2.25405e-08
-1.16114e-07
4.23597e-07
-3.9024e-06
1.81454e-05
8.76086e-06
-0.000227549
1.03479e-05
0.000409815
8.4193e-06
-5.76021e-07
0.00011937
0.000240178
5.27884e-06
-5.7349e-07
-3.71184e-07
3.32875e-07
3.65911e-07
3.69068e-06
-1.77523e-06
-0.000138624
5.74417e-06
-8.92581e-05
-0.00046527
0.000146355
7.95026e-06
-5.58735e-06
-2.0719e-05
0.000314762
-0.000196707
0.000449695
-0.0014878
-0.000618951
5.55701e-05
-0.000313107
-0.000263693
4.11873e-06
3.19098e-07
2.45081e-09
-2.83834e-11
-5.27053e-10
8.02191e-09
1.84049e-08
-2.51625e-09
-1.63825e-07
1.57289e-06
1.49244e-08
4.36555e-07
5.10011e-06
1.23736e-05
-2.47543e-06
-4.44159e-07
6.19347e-06
1.86687e-06
9.99106e-08
1.18664e-09
-1.37112e-09
1.69539e-08
2.25926e-08
4.67841e-07
-9.0425e-08
1.21497e-06
-5.49625e-06
-1.06336e-05
-3.01623e-06
-5.57205e-07
-9.33866e-09
-3.45435e-07
-5.28478e-07
-1.09966e-07
7.57491e-06
-0.000759298
-4.34538e-05
5.42408e-06
-0.000107256
1.75017e-07
-2.05975e-07
-2.45275e-08
-9.52425e-10
-5.68035e-12
7.77921e-12
-7.06523e-11
-3.09256e-10
4.17551e-10
3.65673e-10
-5.26218e-09
1.08199e-11
-2.54355e-09
2.72983e-08
-5.97859e-07
-9.98273e-09
-2.37073e-08
3.57766e-08
1.60273e-08
9.14446e-10
3.64729e-11
-5.03615e-12
-6.27135e-11
9.21839e-10
-7.73072e-10
-6.48044e-11
2.94271e-09
4.48856e-09
-7.76858e-08
-3.48446e-08
-3.67228e-09
-1.17154e-10
-3.10746e-10
-1.33098e-08
-2.10513e-08
6.42733e-07
-2.65147e-07
2.42659e-06
3.18245e-06
-1.46159e-06
-2.71822e-07
-1.57892e-08
-4.63417e-10
-6.93776e-12
8.94319e-14
-1.68603e-14
1.87878e-13
2.11896e-12
-4.28859e-12
2.91295e-12
9.0146e-12
3.82787e-12
-4.13009e-11
2.25201e-10
-1.36011e-09
-2.02847e-11
-2.91582e-10
-5.80248e-10
-6.71928e-11
1.75671e-12
3.64409e-13
1.94071e-13
-1.53124e-12
1.70042e-12
-7.3921e-13
5.04225e-13
-6.84615e-12
6.92511e-11
-4.32907e-10
-1.97643e-10
-8.29748e-12
3.28916e-13
-2.08238e-12
6.84963e-11
-4.00448e-11
2.37317e-09
1.20762e-11
1.80153e-09
-3.96227e-10
-2.59093e-08
-2.90185e-09
-9.81854e-11
-1.28476e-12
-1.05859e-15
2.50283e-15
-2.4326e-15
-3.01743e-15
-3.4622e-15
-3.96372e-14
-3.76247e-14
4.72393e-16
1.1658e-14
-2.19296e-13
1.677e-12
-5.79212e-12
3.85569e-15
-8.6474e-13
-4.24786e-12
-5.63651e-13
-5.19081e-15
-2.27928e-15
-1.04514e-16
1.16964e-14
-2.33563e-14
-4.16389e-15
4.25811e-15
-2.36665e-14
2.32737e-13
-5.65151e-13
-1.48924e-13
6.56016e-14
-3.19086e-15
5.93347e-15
9.63373e-15
2.18656e-12
-1.46069e-11
-2.04614e-13
3.56486e-13
-3.66858e-12
-4.54727e-11
-3.26859e-12
4.72597e-14
6.08226e-15
-4.17524e-15
-2.90953e-15
2.99349e-15
-8.89252e-15
-1.22018e-15
6.66913e-15
-2.35731e-14
-1.5117e-14
-6.82954e-15
8.43943e-15
1.24264e-14
-5.91922e-14
-1.00369e-14
3.12108e-15
-1.21864e-14
-8.11167e-15
-8.61175e-16
2.32995e-15
1.94619e-15
-2.95036e-15
-5.85685e-15
-4.15176e-16
2.38339e-15
1.24125e-14
4.33914e-15
7.21e-15
3.20125e-15
-3.51662e-15
-6.46563e-17
-6.10067e-16
5.30499e-15
-1.41222e-14
2.97902e-14
1.32556e-15
1.58722e-14
-2.4153e-15
2.71408e-13
7.63284e-14
4.04081e-15
-1.10061e-15
4.86342e-17
-1.94506e-15
-1.69918e-15
5.48744e-16
-1.99287e-15
0
1.29845e-14
-3.88925e-14
-1.22703e-15
-2.6539e-15
1.33777e-14
7.39196e-15
-5.55155e-16
-5.01697e-15
6.79267e-17
-3.14928e-15
-3.26455e-15
1.22571e-15
-9.13421e-16
-1.28783e-15
1.9248e-15
-1.34441e-15
1.2635e-15
4.04968e-15
2.12846e-16
1.70103e-15
-7.66447e-15
8.25654e-16
-6.23409e-18
-1.18501e-15
-3.61334e-16
2.55035e-15
6.53006e-15
-3.73925e-16
-3.80606e-15
2.03421e-16
5.62225e-15
-9.32241e-15
5.72626e-15
9.08373e-16
-5.13725e-17
-1.759e-15
-2.82972e-15
1.67497e-15
-9.93026e-16
-1.63776e-15
3.69482e-15
2.46462e-14
-3.21238e-15
2.29113e-15
-2.38387e-15
1.05452e-15
4.55977e-15
1.97079e-15
1.81088e-15
-1.68017e-15
6.10104e-26
-2.68481e-16
1.91443e-15
-1.81712e-15
-1.55768e-15
-3.6185e-15
1.59539e-15
1.54326e-15
2.30031e-15
8.46279e-16
-5.7817e-15
-3.50854e-15
-3.06206e-16
-6.17906e-15
1.64555e-15
-7.83508e-16
9.80987e-16
-1.45307e-15
2.6594e-15
-1.3677e-16
4.41826e-15
-6.48596e-16
-2.34981e-15
-1.27108e-15
1.83581e-15
1.82637e-16
1.62721e-15
2.80616e-15
-4.97596e-15
-3.26004e-15
7.13556e-15
1.17205e-14
1.10308e-14
-3.33446e-15
-1.48694e-15
-1.18037e-15
1.38126e-15
-1.40764e-15
-8.41421e-16
-1.5092e-15
3.09494e-15
1.28119e-15
3.89275e-15
2.73088e-15
-2.89904e-15
-7.47614e-16
-1.78003e-15
5.63827e-15
6.14438e-16
-6.40865e-15
9.73497e-15
-1.98987e-15
1.15426e-15
-4.57596e-15
-6.49914e-15
6.52409e-15
4.00509e-15
-1.84624e-16
-1.19364e-15
1.81193e-16
-1.79824e-15
-6.93607e-16
-2.12308e-15
-9.98401e-16
6.17848e-16
0
-1.2165e-15
7.95307e-15
4.26205e-15
-4.7646e-15
1.7618e-15
-3.26715e-15
3.42296e-15
5.32729e-15
-2.09237e-15
-5.1341e-15
-1.34794e-15
3.97397e-15
6.09719e-15
-2.61981e-15
2.34522e-15
2.48722e-15
6.62889e-16
1.72933e-15
-1.88724e-15
-2.07205e-15
7.89651e-16
2.57132e-15
-1.23435e-16
-1.66794e-15
-2.92386e-15
2.62348e-15
-4.35163e-15
4.60073e-15
7.54828e-16
-3.63502e-15
3.1866e-15
-8.22561e-16
1.01932e-15
-1.48942e-15
-3.20648e-15
4.54857e-15
-4.7658e-15
2.38155e-15
2.01697e-15
-2.3562e-15
7.01572e-16
1.00091e-15
1.09234e-14
-2.24748e-15
1.66209e-15
2.02138e-15
-8.28213e-15
4.95935e-15
2.43334e-16
-1.72651e-15
3.44576e-15
4.86836e-15
6.65291e-17
1.72597e-16
-1.49025e-15
-3.90786e-16
-3.21074e-15
-8.59548e-16
-2.14962e-16
-1.97698e-15
1.02569e-15
-4.8008e-16
1.35572e-15
-2.22999e-15
4.3902e-15
-3.03654e-15
-3.13841e-15
5.97347e-16
6.63583e-26
-2.44286e-25
-3.17923e-15
2.13528e-15
-1.53159e-15
-1.99113e-15
1.79291e-15
-2.26474e-15
1.07276e-15
5.1863e-15
-2.07156e-15
-2.17522e-15
1.67248e-15
-2.77636e-15
-3.77901e-15
-9.85786e-16
-1.06565e-16
1.71964e-16
-4.90243e-15
-2.70495e-15
1.57725e-15
3.08977e-16
-7.74722e-16
-2.18925e-15
-3.323e-15
9.42527e-16
-2.48305e-16
1.92337e-16
1.39072e-15
1.18067e-15
2.32348e-15
-3.70228e-17
-1.89975e-15
-1.20552e-15
9.56065e-16
7.9878e-17
-1.59487e-15
-2.79918e-16
2.32811e-15
8.27795e-16
4.11598e-16
1.58935e-15
-1.22677e-15
-2.25412e-15
4.88513e-16
7.56494e-17
6.71535e-16
-1.88429e-15
-6.75073e-17
4.47529e-15
-1.63944e-15
1.53576e-16
-2.88958e-15
2.03134e-15
-2.11854e-15
-6.01157e-16
-1.32047e-15
-2.64141e-15
-1.14529e-15
6.17562e-16
7.96545e-16
2.02145e-15
-1.93931e-15
1.21698e-15
2.82394e-15
2.52968e-15
2.49685e-15
4.07021e-16
-2.71689e-15
4.27368e-16
2.64247e-15
-4.66265e-16
-3.32603e-15
1.13322e-15
-9.35164e-16
9.3427e-16
-8.03566e-17
2.90317e-15
-2.50009e-15
-1.40435e-16
1.39078e-15
2.66193e-15
5.95748e-16
-5.08492e-16
-6.83403e-16
1.11681e-15
-7.91158e-16
-1.77367e-15
-1.78823e-15
1.81359e-15
-1.25697e-15
2.44926e-15
-2.94311e-15
6.56364e-16
1.44045e-15
-1.68479e-15
1.37738e-15
-3.34169e-16
8.94608e-16
6.72961e-16
-5.57169e-16
-1.47166e-16
1.65153
23.2238
37.1536
21.8838
-8.42678
-31.148
-38.2978
-31.7899
-21.7407
-18.5044
-34.176
-58.7417
-80.0997
-97.9867
-118.572
-144.83
-168.856
-168.386
-117.67
-2.08062
138.538
168.739
43.5561
-89.0185
-164.178
-179.683
-147.792
-96.6434
-53.3781
-28.0051
-17.8596
-17.9358
-29.1574
-59.9621
-103.724
-102.335
-24.3373
38.0036
31.0872
4.83538
-5.57553
-5.33587
-2.04129
2.49503
5.09523
4.44779
1.59601
-1.41159
-3.29245
-3.40402
-1.9144
-0.00647095
1.07184
1.09903
0.718886
0.479995
0.493235
0.571114
0.398102
-0.176067
-1.57105
-3.91004
-3.02957
3.78282
8.36157
5.70083
2.09227
0.312254
-0.216461
-0.303139
-0.304788
-0.372134
-0.720351
-1.66218
-2.81575
-2.53371
-2.38769
-6.05994
-7.92901
-6.07322
-4.94953
-4.63504
-2.50552
3.43066
7.99699
6.5283
-0.274071
-7.38746
-11.8303
-14.5726
-15.2911
-13.8944
-13.579
-16.4578
-21.0122
-23.8791
-22.8834
-16.5203
-5.66116
3.91334
6.45812
-11.693
-32.0083
-15.5754
11.7685
13.3884
-1.65487
-15.9507
-23.6301
-25.9041
-24.8579
-22.0414
-20.5247
-23.8616
-28.365
-21.464
-4.80164
-1.66137
-9.65088
-9.08526
-0.930236
-0.718341
-1.23549
-0.0658074
1.7436
2.06614
0.368116
-1.95779
-3.11518
-3.61834
-4.1695
-4.21205
-4.30701
-5.10738
-5.88216
-5.86618
-4.89632
-2.36895
3.18464
9.21723
9.31893
0.195389
-13.1231
-12.0172
2.44349
9.01231
3.40929
-4.86959
-10.103
-12.0946
-12.1255
-10.7579
-8.72149
-8.17218
-9.47602
-8.21785
-2.86742
0.285253
-1.42708
-2.29117
-0.148661
-0.104634
-0.302504
-0.223219
0.145953
0.409521
0.318825
-0.0876761
-0.508243
-0.734104
-0.86633
-0.89239
-0.823664
-0.732089
-0.57408
-0.343788
-0.0759567
0.23878
0.926067
2.70257
3.96272
2.26123
-1.31036
-2.61086
-0.273739
2.3368
2.34036
0.787575
-0.493461
-1.02089
-1.07476
-0.868106
-0.438422
-0.243172
-0.775406
-1.29395
-0.75668
-0.0228841
-0.0613411
-0.303017
-0.0112424
0.0407176
0.0656422
0.0464255
0.00225656
-0.00525375
0.0221468
0.035066
0.0123562
-0.0327089
-0.0570645
-0.027077
-0.00885588
-0.00877716
0.00487432
0.0222781
0.0208996
-0.00203333
-0.0266728
0.214639
1.0931
1.07299
0.145125
0.160901
0.0345525
0.101212
0.2724
0.207752
0.0743012
0.00365411
-0.00634306
0.0304645
0.147105
0.239168
0.156541
-0.0140601
-0.0452498
-0.0131581
-0.000358933
-0.0387428
-0.00544353
0.0279323
0.107438
0.136021
0.0621134
-0.0269215
-0.064949
-0.0621223
-0.0283096
0.0227399
0.0572742
0.120314
0.144445
0.0995813
0.066441
0.059039
0.0256978
-0.000793455
-0.0250333
-0.0318459
0.199542
0.579364
0.154633
0.185538
0.222154
0.0563363
0.0349064
0.0303993
-0.0106468
-0.0639725
-0.100165
-0.100668
-0.0287098
0.0777391
0.106354
0.0293331
0.0118414
0.0303999
0.00505666
-0.00746035
0.000416069
0.00150613
0.0584625
0.0948801
0.0622878
0.00290154
-0.0444923
-0.0714804
-0.0772214
-0.0402498
0.00520698
0.0598717
0.124302
0.113842
0.0669521
0.0364239
0.0135432
0.000500879
-0.000199234
-0.00736237
0.00207666
0.19657
0.166258
0.0536541
0.147859
0.143132
0.0762912
0.0371797
0.0100813
-0.00710712
-0.0146438
-0.0183068
-0.00689757
0.0208549
0.0595907
0.0627767
0.00119979
0.00650746
0.0114238
-0.00408271
-0.00100585
-0.00216311
0.0121727
0.0274617
0.0148584
-0.000106185
-0.0130103
-0.0248216
-0.0389575
-0.0402921
-0.0179148
0.0101773
0.0643735
0.0896717
0.0493228
0.010677
0.000603605
0.00113455
-0.000632381
-0.00244619
-0.00335086
0.0408922
0.0778944
0.0282177
0.0716584
0.09157
0.0499973
0.0207226
0.00750498
0.00110132
-0.000631184
-0.000175466
0.000724975
0.00103242
0.00324796
0.0238312
0.0173618
-0.00304402
0.00305415
-0.00262251
-0.00184666
-0.000679735
-0.0011221
0.00223758
0.00145572
0.00222004
0.00256488
-0.00107999
-0.00764693
-0.0119809
-0.0120564
-0.00206053
0.0154585
0.0265375
0.013887
0.00205993
-0.000574413
0.000550974
6.56811e-05
-0.00108532
-0.000662337
0.00691199
0.0191816
0.00755106
0.0289076
0.0366602
0.0194719
0.00649716
0.00110797
-0.00032392
-0.000103145
8.53012e-06
-1.1715e-05
1.45256e-05
-0.00032101
0.000955906
0.0042009
-0.000411609
-0.000159516
-0.00161211
-0.000694374
0.0001401
-0.000107875
0.00274555
0.00435725
0.00380539
0.00156967
-0.000799467
-0.0018345
-0.00183035
-0.00226258
-0.00190296
0.00156332
0.00205028
0.000935677
0.000377224
0.000144017
0.000360432
-0.00025272
-0.000119151
-0.000236236
0.00111337
0.00241883
0.000583163
0.00832811
0.0099103
0.00315873
0.000494866
-0.000254763
-0.000358229
-4.3147e-05
-1.73307e-05
-7.70628e-06
-7.61367e-07
-1.91356e-06
2.16835e-06
0.000242349
-5.39725e-05
0.000126775
-0.000136406
-8.7958e-05
-5.80916e-06
0.000394817
0.00111847
0.00202184
0.0013607
0.0006683
-1.54095e-06
-0.000198668
-0.000334879
-0.000637509
-0.000825844
-0.00045068
-5.18766e-06
-0.000232968
-6.5956e-06
1.88485e-06
1.20467e-06
2.57795e-05
7.57759e-06
-2.8249e-05
0.000101703
9.61681e-05
-0.000128163
0.00124785
0.000984654
-1.848e-06
-1.69771e-05
0.000108636
2.46714e-07
-1.25941e-07
3.13537e-08
3.68991e-08
3.7331e-07
-6.78721e-06
1.39546e-06
2.45911e-06
-1.61078e-05
5.73076e-05
0.000131277
-2.96366e-05
-3.09749e-06
-0.000149047
-5.4722e-05
0.000146449
5.82567e-05
0.000630191
3.98391e-05
1.15509e-05
-9.26758e-07
-3.70598e-06
-7.22128e-06
-4.39395e-06
-9.27886e-07
-2.22339e-06
-1.66248e-06
-1.89633e-07
3.75728e-07
-3.88444e-07
3.20539e-06
8.60197e-07
-3.68447e-05
-0.000253944
-1.13436e-05
-7.02252e-05
8.88106e-06
0.000258458
1.64479e-05
-4.18583e-07
-2.55494e-08
-1.33241e-10
8.70029e-10
4.96613e-10
2.78718e-09
8.15266e-08
-8.02911e-07
3.65801e-08
-3.27556e-08
-4.65466e-06
0.00010953
1.59525e-07
-1.91972e-06
-3.14161e-05
-2.05228e-05
-3.62034e-06
2.71566e-06
2.96589e-06
9.68177e-07
1.9105e-07
8.45851e-09
-6.9606e-10
-1.80953e-08
-3.99169e-08
-1.84273e-08
-8.69462e-09
-4.52725e-09
-1.52885e-11
-1.66221e-10
1.11082e-08
-6.50139e-09
-8.15039e-07
-3.25456e-06
-1.99559e-05
2.23036e-06
1.04633e-05
9.12706e-06
-1.56044e-07
-3.75206e-07
-2.12919e-08
-2.69183e-10
2.08251e-11
-1.96288e-11
-5.97037e-12
-2.82838e-10
1.96073e-10
3.90225e-09
-1.16588e-09
1.81019e-08
-2.30359e-07
2.59603e-06
-1.93512e-07
-2.22044e-07
-8.25886e-07
-1.57494e-07
-2.62548e-08
-2.47372e-09
9.52587e-10
1.44632e-10
-5.9803e-11
-1.13471e-11
-3.2622e-13
-1.05993e-11
-8.74241e-11
-7.96761e-11
-1.68976e-11
-1.20852e-12
1.92933e-13
-1.68388e-12
-4.41035e-11
-3.236e-10
4.91837e-09
1.24798e-08
6.75118e-08
1.67674e-06
2.37148e-07
-1.79752e-07
-5.44241e-08
-3.50875e-09
-7.29052e-11
-3.89333e-14
-1.41397e-13
1.96453e-13
-3.51703e-14
5.12274e-12
-1.17918e-11
-5.2351e-12
-1.89165e-11
3.68708e-10
-4.45386e-09
4.49344e-08
-2.90154e-09
-1.1887e-08
-5.33326e-09
-5.73236e-10
-4.79819e-11
-7.06942e-13
-3.35869e-13
-1.39089e-13
4.23935e-14
1.10272e-14
3.87934e-15
8.44174e-16
-3.15868e-13
3.98689e-13
2.32575e-13
4.8643e-14
5.40759e-15
-4.2308e-15
-5.26249e-14
6.68441e-13
9.33708e-12