/*--------------------------------*- C++ -*----------------------------------*\
| =========                 |                                                 |
| \\      /  F ield         | OpenFOAM: The Open Source CFD Toolbox           |
|  \\    /   O peration     | Version:  5.0                                   |
|   \\  /    A nd           | Web:      www.OpenFOAM.org                      |
|    \\/     M anipulation  |                                                 |
\*---------------------------------------------------------------------------*/
FoamFile
{
    version     2.0;
    format      ascii;
    class       volVectorField;
    location    "50.4676134421789371";
    object      GradTUP1Mean;
}
// * * * * * * * * * * * * * * * * * * * * * * * * * * * * * * * * * * * * * //

dimensions      [0 -1 -1 1 0 0 0];

internalField   nonuniform List<vector> 
60000
(
(-0.0457648 -6.49155 0.0342571)
(0.00303904 -6.06185 -0.0665668)
(0.0779287 -2.84093 -0.116355)
(0.0956214 0.767894 -0.0604524)
(0.0434551 2.28137 -0.0469166)
(-0.00399807 1.00863 -0.0830214)
(-0.0140728 -0.100236 0.0496133)
(-0.0131548 -0.374545 0.207061)
(-0.015613 0.0719487 0.289029)
(-0.0449848 -1.6035 0.302335)
(-0.0560824 -3.89914 0.280964)
(-0.00144036 -4.5063 0.215868)
(0.0203118 -1.81039 0.110935)
(-0.0323518 0.591372 0.0298624)
(-0.0557769 0.499743 -0.0450864)
(0.0588184 0.598455 -0.0250267)
(0.179669 3.14296 0.0421871)
(0.17441 5.50363 -0.0741781)
(0.0853169 4.32177 -0.0898868)
(0.000220446 0.404843 0.0596527)
(-0.104459 -1.75664 0.268973)
(-0.198923 -2.47005 0.334408)
(-0.105681 -1.16544 0.154001)
(0.117278 4.40921 -0.189243)
(0.178314 12.3399 -0.451426)
(-0.0247457 15.9396 -0.53513)
(-0.20592 11.0613 -0.416241)
(-0.164713 2.02669 -0.21963)
(-0.0384025 -3.76335 -0.0376431)
(-0.00924387 -3.74108 0.0535699)
(-0.0550842 -1.45969 0.089761)
(-0.0915398 -1.55596 0.0451177)
(-0.0412864 -4.36113 0.0267304)
(0.0891125 -6.45532 0.00314696)
(0.207465 -5.25932 0.135904)
(0.033149 0.381185 0.238929)
(-0.100735 1.77451 0.103642)
(-0.0473011 0.170899 0.0780844)
(-0.0306223 -2.7793 0.106818)
(-0.0380873 -5.22595 0.0954086)
(-0.0736898 2.04668 0.00846023)
(-0.175766 1.70404 -0.0208248)
(-0.21456 0.497747 0.00548729)
(-0.1491 -0.619756 0.0237486)
(-0.00567076 -1.23187 0.0121293)
(0.0697378 -0.70847 -0.0424964)
(0.0245351 0.0372492 -0.113379)
(-0.0247083 0.259947 -0.125509)
(0.032564 -0.0774609 -0.079279)
(0.0916482 0.551846 -0.0308655)
(0.0384505 1.22278 -0.0706456)
(-0.0863077 1.58322 -0.211487)
(-0.158289 1.00448 -0.266417)
(-0.096516 -0.185123 -0.191866)
(-0.023956 -0.920326 -0.164338)
(-0.0306632 -1.47526 -0.33282)
(-0.0429037 -1.83582 -0.506794)
(0.0216413 -1.53217 -0.4449)
(0.0757012 -0.0200784 -0.185666)
(-0.00141905 1.467 0.12)
(-0.0965754 1.80545 0.177685)
(-0.0868117 1.13898 0.0202655)
(-0.104347 0.246578 0.0203979)
(-0.1615 -1.17076 0.174322)
(-0.136247 -2.39392 0.258348)
(-0.00982058 -2.76997 0.264414)
(0.123359 -2.17326 0.256011)
(0.16726 -1.1423 0.196711)
(0.0566902 -0.0409998 0.0388393)
(-0.0938587 0.59217 -0.0172691)
(-0.0337176 0.236274 0.126595)
(0.0833789 -0.138642 0.143751)
(0.0760562 0.0543969 -0.0214399)
(0.037481 0.258228 -0.127675)
(-0.0538841 0.66769 -0.112136)
(-0.207895 0.976412 -0.188029)
(-0.0249755 -0.339706 -0.367476)
(0.2113 -0.865037 -0.159272)
(0.159449 0.145465 0.0866876)
(0.038885 1.3796 0.0966233)
(0.183178 2.23189 0.575082)
(-0.27888 3.43938 0.226409)
(-0.541914 1.73138 -0.0825775)
(-0.428344 -0.419987 -0.2983)
(-0.0733117 -1.58051 -0.426028)
(0.19144 -1.61176 -0.450982)
(0.177599 -0.755231 -0.420739)
(-0.0179848 0.411841 -0.271845)
(0.0145018 -0.064331 0.111784)
(0.243666 -0.405925 0.390571)
(0.251077 0.953832 0.360738)
(-0.0443156 2.83107 -0.294216)
(-0.424648 3.03739 -1.03198)
(-0.444543 0.773451 -1.26503)
(-0.303338 -1.8142 -1.15791)
(-0.286006 -3.61601 -1.30568)
(-0.194539 -4.78857 -1.58775)
(0.303741 -4.42021 -1.6324)
(0.905528 -0.895939 -1.34364)
(0.845719 5.4035 -0.817114)
(0.107704 9.92905 -0.236536)
(-0.647916 8.13386 0.216839)
(-1.16959 1.68707 0.704616)
(-1.29193 -5.77394 1.42211)
(-0.75802 -9.77928 1.57946)
(0.227356 -8.93212 1.39855)
(1.07799 -4.10865 1.281)
(1.23573 1.23625 0.917838)
(0.682378 4.24939 -0.0328178)
(-0.0841131 4.46222 -1.00525)
(-0.371244 2.34817 -1.27399)
(-0.0810925 -0.6926 -0.997043)
(0.242641 -2.02844 -0.764767)
(0.290514 -0.903253 -0.548344)
(0.0297999 1.07811 -0.1818)
(-0.427902 2.4423 0.104704)
(-0.423783 0.50635 0.0734661)
(0.0721183 -3.09095 0.300391)
(0.43221 -3.84797 0.763928)
(0.467133 -1.34387 0.815982)
(0.21128 0.507308 0.332561)
(-0.11065 1.62061 0.116743)
(-0.312288 1.09178 -0.124748)
(-0.238397 0.0265315 -0.246849)
(-0.0574645 -0.363182 -0.274402)
(0.0621292 -0.397031 -0.271837)
(0.0968804 -0.310281 -0.207641)
(0.0155986 0.00525891 -0.0505865)
(-0.0416826 0.139682 0.197076)
(0.0742713 -0.345806 0.378209)
(0.175635 0.119427 0.352308)
(0.0419081 1.25016 -0.0610806)
(-0.226885 1.71188 -0.588619)
(-0.3128 0.780509 -0.803486)
(-0.224606 -0.563418 -0.685635)
(-0.159699 -1.20886 -0.602552)
(-0.0724143 -1.40148 -0.626202)
(0.20985 -0.951437 -0.61127)
(0.571199 -0.0149887 -0.505659)
(0.574886 1.70795 -0.283543)
(0.0941291 3.71481 0.127147)
(-0.538557 3.69804 0.532063)
(-0.943575 0.736206 0.795163)
(-0.889123 -3.05977 1.01002)
(-0.35011 -4.54517 0.854965)
(0.333644 -3.44905 0.606625)
(0.816606 -0.954097 0.509445)
(0.855988 1.72674 0.355425)
(0.446104 3.33109 -0.181946)
(-0.0844225 3.22051 -0.777563)
(-0.325468 2.02167 -0.916052)
(-0.199834 0.641402 -0.658991)
(0.0513581 -0.366669 -0.349932)
(0.19475 -0.399629 -0.142809)
(0.115018 0.348691 0.0871606)
(-0.162967 1.03681 0.260875)
(-0.303213 0.643202 0.234028)
(-0.116934 -0.638111 0.201632)
(0.15552 -1.44759 0.345775)
(0.314031 -1.05116 0.410553)
(0.0751478 -0.135748 0.0836319)
(-0.0124159 0.270925 0.0334396)
(-0.0867955 0.353787 -0.0413191)
(-0.0660254 0.125685 -0.0727501)
(-0.0182596 -0.00682182 -0.0569452)
(0.00265876 -0.00994999 -0.0498938)
(0.013207 -0.0131649 -0.049829)
(-0.00197795 0.019464 -0.00801389)
(-0.0365991 0.114813 0.06849)
(-0.0150165 0.0342449 0.123577)
(0.0436095 -0.033477 0.10887)
(0.018939 0.251435 -0.000301923)
(-0.080925 0.531839 -0.145488)
(-0.109868 0.371828 -0.192299)
(-0.0654807 0.00793252 -0.145697)
(-0.034696 -0.171299 -0.118103)
(-0.00944552 -0.270945 -0.132246)
(0.0843923 -0.250573 -0.120137)
(0.193079 0.0170211 -0.0803828)
(0.151954 0.171762 -0.0513513)
(0.00748032 0.260528 0.0597692)
(-0.180577 0.597116 0.218337)
(-0.315529 0.218856 0.295408)
(-0.259882 -0.608182 0.27885)
(-0.0662685 -0.828192 0.155623)
(0.0833872 -0.540039 0.0670094)
(0.1726 -0.280825 0.0515455)
(0.238515 -0.0137571 0.0641908)
(0.178074 0.354402 -0.0486234)
(-0.00729971 0.661984 -0.25267)
(-0.109504 0.649113 -0.270296)
(-0.0792708 0.364395 -0.145864)
(-0.0133535 0.0688098 -0.0480553)
(0.0345599 -0.0359325 -0.0110418)
(0.0469526 0.0209072 0.0490584)
(-0.0168222 0.150748 0.110165)
(-0.086431 0.220142 0.0739747)
(-0.0546573 0.0364866 0.0340805)
(0.00745054 -0.173412 0.067619)
(0.0662597 -0.276525 0.0871054)
(0.0127648 -0.0450174 0.0164902)
(0.00296565 -0.0102671 0.00914126)
(-0.0125842 0.0486282 -0.00255962)
(-0.00693553 0.0309803 0.00158362)
(-0.00277885 0.0174188 0.015002)
(-0.00436716 0.0138447 0.0177259)
(-0.00069501 -0.00105152 0.00137913)
(-0.000629801 0.00343874 -0.00637124)
(-0.0204587 0.0684471 0.0135686)
(-0.0249203 0.0846394 0.0345389)
(0.00211873 0.0186991 0.0344975)
(0.00725003 0.0172212 -0.00208354)
(-0.031419 0.0824846 -0.0258413)
(-0.0273413 0.0297865 0.0224516)
(0.0140947 -0.0204379 0.0644869)
(0.0171862 0.055202 0.0391787)
(-0.00350471 0.0221158 -0.0204179)
(0.0425727 -0.143177 -0.0459162)
(0.143667 -0.0493931 -0.0361917)
(0.101662 0.0951463 -0.0202401)
(-0.00877751 -0.159999 -0.00178301)
(-0.0452737 -0.1753 0.033424)
(-0.0291976 -0.0450685 0.0253899)
(0.0183518 -0.0190758 -0.0149565)
(0.0200492 0.145472 -0.0306467)
(-0.0135079 0.145537 -0.0130418)
(-0.0266666 0.0577373 -0.00667041)
(0.00478509 -0.00937232 -0.00417864)
(0.0523145 -0.0569577 -0.0116766)
(0.0208923 0.00213732 -0.0854632)
(-0.0274409 0.178582 -0.0803836)
(-0.021724 0.197324 0.0087246)
(-0.00566368 0.05626 0.038703)
(0.000600606 -0.0165133 0.0102433)
(0.00456846 0.0185476 0.000868148)
(0.0036194 0.00783697 0.0326013)
(-0.0132567 0.0303977 0.0187118)
(-0.00826295 0.0396557 -0.0172346)
(-0.00197437 0.00606704 0.00317783)
(0.00118572 -0.00993711 0.0206906)
(-0.0022379 0.00645804 0.00195524)
(-8.84735e-05 -0.00655576 0.000278965)
(-0.000152532 -4.71718e-05 0.00117469)
(0.0027937 0.00426889 0.0103112)
(0.00142072 0.00430424 0.0206341)
(-0.00301482 0.00632023 0.0248964)
(-0.00167915 -0.00606206 0.0131057)
(0.00224748 -0.0147082 -0.0033218)
(-0.00548286 0.0126615 -0.00591983)
(-0.0142031 0.038967 0.00284568)
(-0.00526627 0.0253922 0.0076379)
(0.00457441 -0.00552193 -0.00118731)
(-0.00989991 -0.0210764 -0.0103862)
(-0.00554718 -0.0536982 0.0345336)
(0.0288878 -0.0437525 0.0843812)
(0.0322643 0.0544273 0.0696982)
(-0.00123975 0.0887248 0.0159796)
(0.00897149 -0.0307841 -0.0141757)
(0.122309 -0.0599732 -0.0320897)
(0.123736 0.0943684 -0.0269107)
(0.0129922 -0.0691685 0.00858049)
(-0.00654073 -0.233423 -0.0131637)
(0.0639817 -0.0991331 -0.0692294)
(0.108775 0.0876284 -0.0988185)
(0.0292838 0.207909 -0.0334888)
(-0.0191217 0.0858457 0.00500588)
(-0.0128598 0.0164123 0.00259949)
(-0.0193203 0.0129874 -0.00127732)
(-0.00126902 -0.00182696 -0.00126777)
(0.00896495 -0.040535 -0.0334283)
(-0.00360985 -0.0241887 -0.0540403)
(-0.00566728 0.0594201 -0.000890608)
(-0.00350984 0.0314001 0.031132)
(-0.000749493 -0.047775 0.00869062)
(0.00192993 -0.0387153 -0.0116938)
(0.00300285 -0.00699236 0.00235849)
(0.000849704 -0.00854999 0.0115548)
(0.00374241 0.000353439 -0.0111708)
(0.00553075 -0.00952095 -0.0105824)
(-0.00165818 0.00237657 0.00311337)
(-0.00110857 0.0017133 -7.56144e-05)
(-0.000804954 0.0022723 -0.00115361)
(0.000427835 0.00154628 0.000392586)
(0.00117662 0.00431722 0.00418925)
(0.000452079 0.00331207 0.00852966)
(-0.00152461 0.00389559 0.0124032)
(-0.00137962 -4.17139e-05 0.00977068)
(0.00163183 -0.0088482 -0.00119762)
(0.000118162 -0.00662152 -0.0078447)
(-0.0048992 0.00616512 -0.00442345)
(-0.00367942 0.0113245 0.00110514)
(0.00247547 -0.0036432 -0.00021509)
(-0.00121051 -0.020835 -0.00478332)
(-0.00185933 -0.0265343 0.00924898)
(0.0134413 -0.014825 0.034811)
(0.0178481 0.019538 0.0370497)
(-0.000568489 0.0472221 0.0157827)
(-0.013847 0.0197316 0.00134141)
(0.0709834 -0.0345216 -0.015751)
(0.1258 0.0287967 -0.0409866)
(0.0249566 0.0533016 0.0389755)
(0.00475535 -0.134933 -0.00221458)
(0.0912537 -0.0823763 -0.110014)
(0.104259 0.0851266 -0.101224)
(0.0148871 0.0971805 -0.0114361)
(-0.0118992 0.0241578 0.00960461)
(-0.000233945 -0.00137603 0.001733)
(0.000359677 -0.00053162 0.000120211)
(-0.00487531 0.00248944 0.00243265)
(-0.00023389 -9.36759e-05 -0.000202249)
(-0.00114549 -0.0222074 -0.0192613)
(0.00032383 -0.0121652 -0.0154163)
(-0.000935089 0.0136286 0.00534644)
(-0.00256512 -0.00428483 0.00312007)
(0.0011382 -0.0253187 -0.00883386)
(0.00326958 -0.0163071 -0.00657766)
(0.0021467 -0.00860232 0.00414219)
(0.00206306 -0.00463241 0.00049278)
(0.00319801 -0.00778155 -0.00493989)
(0.0011554 -0.00739539 -0.00124896)
(0.000149959 -0.00188022 -0.000205308)
(-0.000101993 0.000308333 -0.000551736)
(0.000368195 0.00128053 -3.32592e-05)
(0.000260136 0.00269996 0.000972714)
(-0.000137539 0.00156885 0.00118313)
(-0.000519874 0.0010577 0.0017849)
(-0.000621252 0.000645552 0.00282791)
(0.000164785 -0.000495596 -8.85085e-05)
(0.000340191 -0.00270647 -0.00385491)
(-0.00093699 -0.00191321 -0.00326257)
(-0.000964804 0.00209721 0.00118975)
(0.00124082 -1.71727e-05 0.00110196)
(0.000846288 -0.0124017 -0.00102082)
(0.00072786 -0.0107479 0.00379838)
(0.00516764 -0.00161831 0.0109591)
(0.0051765 0.00553329 0.0109935)
(-0.000646376 0.00955425 0.00494324)
(-0.0174774 0.0135649 0.0049155)
(0.014058 -0.00207973 0.00406391)
(0.0869886 -0.0110873 -0.0313244)
(0.0251631 0.0850747 0.0424607)
(-0.00481919 -0.00421169 0.0151237)
(0.07809 -0.0328571 -0.108384)
(0.065267 0.0558507 -0.0714856)
(0.00464786 0.0350633 -0.00180636)
(-0.00591977 0.00505776 0.00620552)
(-0.00286821 -0.000246743 0.00196361)
(0.00087208 0.00020427 -0.000325373)
(0.000356313 2.79983e-05 -0.000371562)
(-1.27376e-05 0.0012922 0.00141438)
(-8.53078e-05 -0.000123923 6.34977e-05)
(0.000107386 -0.00550253 -0.00434267)
(0.00119148 -0.00299473 -0.00187106)
(-0.000344833 0.00206685 0.00117578)
(-0.000677788 -0.000895969 -0.0018265)
(0.00108092 -0.00484707 -0.00390931)
(0.00146402 -0.00429808 -0.00101464)
(0.000909725 -0.00258714 0.00119216)
(0.000836279 -0.00244158 -0.00046733)
(0.000626286 -0.0034927 -0.000736619)
(0.00012783 -0.000860764 -0.00021634)
(0.000229746 -0.000533689 -0.000127375)
(0.000355132 0.000288415 5.39293e-05)
(0.000133276 0.000988183 0.000265041)
(-4.75781e-05 0.000395346 0.000207298)
(-0.000105505 0.000126703 -0.000174556)
(-9.1848e-05 -0.000181845 3.04811e-05)
(-2.75825e-05 9.74186e-06 1.55272e-05)
(-4.03428e-05 0.000158073 -0.00093737)
(-0.000113422 -0.000747124 -0.00108138)
(0.000292888 -0.000558154 0.000870747)
(0.000766853 0.000853413 0.00122839)
(0.000531822 -0.00415562 -9.55628e-05)
(0.00162503 -0.00279711 0.00256744)
(0.0033709 0.0021386 0.00482821)
(0.00142396 0.00265276 0.00288239)
(-0.000122464 -0.000100117 -0.000102455)
(-0.00877965 0.00154876 0.00357387)
(-0.0105129 0.00440687 0.0109388)
(0.0363763 -0.012424 -0.0108965)
(0.0209911 0.0352101 0.0254496)
(-0.010088 0.0390911 0.0114977)
(0.0483926 -0.00564561 -0.07408)
(0.0341953 0.0232466 -0.0415125)
(0.00054722 0.00969743 -0.000703536)
(-0.00286522 0.000486481 0.00278783)
(-0.000597443 -2.37865e-06 0.000451128)
(-0.000338823 -0.000162153 0.000203568)
(9.84631e-05 8.10531e-06 -0.000123697)
(-1.10677e-05 -6.99155e-05 -0.000117573)
(7.27748e-05 0.000338676 0.00032332)
(-9.28301e-06 0.000103452 0.00017585)
(0.000199168 -0.000572279 -0.000277997)
(0.000382306 -0.000489617 0.000190898)
(-2.59396e-05 9.50646e-05 0.000156895)
(-2.30059e-05 -5.2485e-05 -0.000634214)
(0.000355658 -0.000763471 -0.000818548)
(0.000333826 -0.000769376 -1.07448e-05)
(0.000219891 -0.000634791 0.000135421)
(0.000156161 -0.000878839 -0.000166915)
(4.27367e-05 -0.000249394 -0.000111177)
(0.000116079 -0.000208231 -0.000100911)
(0.00014462 7.54575e-05 -1.16122e-06)
(5.2984e-05 0.000206652 8.09181e-05)
(-2.07236e-05 0.000212458 0.000216441)
(-1.64566e-05 2.61286e-05 1.00113e-05)
(-2.94259e-05 5.16058e-06 -9.888e-06)
(-4.10589e-07 -1.69552e-05 2.93385e-06)
(-2.2348e-06 -3.84187e-05 -0.000175338)
(-0.000123104 4.83423e-05 -0.000437813)
(0.000176767 -0.000239166 0.000298243)
(0.000332881 0.000369527 0.000545759)
(-2.02124e-05 -0.00032143 -0.000101525)
(0.000836311 -0.00048314 0.000954959)
(0.00176184 0.00108823 0.00190104)
(0.00051069 0.000892259 0.00083946)
(0.000174432 4.45398e-05 -0.000599444)
(-0.0015179 -0.000286072 0.000518376)
(-0.00719216 0.00258087 0.00546465)
(0.00759742 -0.00507455 -0.000180632)
(0.0127723 -0.00361238 0.0111342)
(-0.00570977 0.0191328 0.00417443)
(0.0231831 -0.00161293 -0.0366056)
(0.0160327 -0.000128867 -0.0198483)
(-0.000306484 -0.000173004 -0.000569889)
(-0.00108049 -0.000134199 0.00069086)
(-0.000264975 6.3125e-07 0.0001248)
(-7.5513e-06 5.16962e-05 7.94771e-07)
(-2.63297e-05 1.00661e-05 5.90411e-05)
(-3.14554e-06 -8.81289e-06 -8.01099e-06)
(-3.04474e-06 -1.34899e-05 -1.22528e-05)
(-5.2821e-07 1.71171e-05 1.46931e-05)
(-3.18887e-05 9.27016e-05 4.65055e-05)
(1.47382e-05 -1.86797e-05 9.23268e-06)
(4.67585e-05 -6.45518e-05 8.61e-05)
(-2.37287e-06 7.83884e-07 1.37363e-05)
(7.06536e-06 -4.29985e-06 -7.53958e-05)
(5.1454e-05 -8.09546e-05 -6.74209e-05)
(5.64394e-05 -0.000129356 2.69598e-05)
(2.98904e-05 -0.000157108 -1.37381e-05)
(1.25674e-06 -5.07665e-06 -5.80424e-06)
(7.00072e-05 -5.40272e-05 -3.57546e-05)
(9.63356e-05 -4.80592e-05 5.53725e-07)
(1.10411e-05 5.27438e-06 1.40381e-05)
(-2.12972e-06 2.19748e-06 5.34453e-06)
(-1.51406e-06 1.20529e-06 1.74788e-06)
(1.45376e-06 -1.27949e-06 -3.51346e-06)
(1.14997e-07 1.94215e-07 6.30422e-07)
(5.11983e-07 -4.91205e-06 -1.35294e-05)
(-9.44411e-06 -6.73709e-07 -3.8464e-05)
(4.8687e-05 -0.000108063 4.60111e-05)
(9.22733e-05 7.33805e-05 0.000164771)
(-2.90081e-05 0.000175269 -6.25822e-06)
(0.000211791 -5.49495e-06 0.000186098)
(0.000601924 0.000181837 0.000570697)
(0.000239068 6.39248e-05 0.000398259)
(3.50058e-05 0.000138176 -0.000182328)
(9.78133e-05 -0.000139504 -0.000378708)
(-0.00150122 0.000954884 0.000615983)
(0.000385766 -0.000603688 0.000481035)
(0.00486745 -0.00646137 0.00388683)
(-0.00147858 0.00307903 0.00140933)
(0.00760899 -0.000724433 -0.0121905)
(0.00604188 -0.00383941 -0.00699344)
(2.51338e-05 -0.00113018 -0.000356881)
(-0.000304143 1.21184e-05 6.7947e-05)
(-0.000175764 5.29933e-06 0.000147729)
(-4.41861e-06 9.75302e-08 4.80003e-06)
(2.748e-08 6.77794e-08 1.15795e-08)
(2.98197e-07 7.05656e-07 4.99499e-07)
(-2.81314e-07 -1.04002e-06 -7.11727e-07)
(3.21554e-08 -7.40971e-07 -4.61929e-07)
(-1.20015e-07 2.30731e-07 5.45148e-08)
(-6.39248e-07 4.56341e-07 -4.84018e-07)
(1.36942e-07 4.02559e-08 5.5113e-07)
(2.74593e-07 -3.67223e-07 -3.6835e-07)
(5.3477e-08 4.97973e-08 -1.34222e-07)
(1.42077e-06 1.93379e-06 -1.33564e-06)
(1.612e-06 -6.29259e-07 1.32066e-06)
(2.75029e-06 1.91958e-06 6.63068e-06)
(2.10024e-07 -6.81504e-07 -2.29648e-06)
(4.21798e-06 -4.03428e-06 -3.12558e-06)
(6.103e-06 -5.60707e-06 1.18127e-07)
(7.80562e-07 -1.50373e-06 8.67746e-07)
(-2.27257e-08 -8.84277e-08 1.25286e-07)
(-7.40128e-09 1.68472e-09 1.09902e-08)
(-8.6879e-09 1.28701e-08 7.86676e-09)
(5.0669e-08 -1.24226e-07 1.82947e-08)
(-4.45619e-08 2.64345e-07 3.1531e-07)
(-1.49369e-06 -1.58737e-07 -7.8107e-06)
(1.97595e-06 -3.69136e-06 1.35814e-06)
(6.532e-05 3.77535e-05 0.000162388)
(-1.05617e-05 2.91648e-05 -4.60087e-06)
(0.000130958 -6.9238e-05 0.000154287)
(0.000156455 -4.9814e-05 0.000203514)
(9.93593e-05 -6.62599e-05 0.000184637)
(7.19608e-07 -3.79646e-06 1.6116e-05)
(2.33141e-05 -1.07856e-05 -4.19711e-05)
(-0.0001792 0.000219795 1.57121e-05)
(-0.000155526 0.000145439 -6.5437e-06)
(0.0011883 -0.00178508 0.000985212)
(-0.000169015 -0.000286603 0.000597671)
(0.0016239 0.000158756 -0.00250148)
(0.00160511 -0.00130326 -0.00151973)
(0.000143499 -0.000574743 -0.000211893)
(-0.000130366 -7.61349e-05 8.58022e-05)
(-3.95973e-06 2.13517e-06 2.23855e-06)
(-6.07506e-08 7.04314e-08 1.47164e-08)
(-1.44986e-09 8.0388e-10 -5.97402e-10)
(-2.7727e-09 -4.66777e-09 -2.8082e-09)
(1.59155e-09 4.51467e-09 2.71837e-09)
(-3.44654e-10 3.71286e-09 2.0167e-09)
(7.08131e-10 -1.0165e-09 -2.413e-10)
(3.81212e-09 -1.5274e-09 2.68831e-09)
(-2.1113e-10 -1.02768e-09 -2.10642e-09)
(-8.22754e-10 1.98519e-09 -1.83199e-09)
(-5.34901e-09 -3.89478e-09 8.9448e-09)
(6.56203e-08 1.74877e-07 -4.2541e-08)
(8.59834e-09 3.27609e-08 5.38069e-09)
(-2.08537e-07 1.7081e-07 -2.51743e-07)
(-1.2117e-09 7.65093e-09 -8.84928e-09)
(3.52601e-08 -1.4091e-08 -2.17211e-08)
(7.78805e-08 -9.30352e-08 1.91416e-08)
(1.21297e-08 -3.32886e-08 1.57756e-08)
(1.48976e-10 -2.11523e-09 1.4966e-09)
(-2.11261e-11 -2.77839e-11 5.59807e-11)
(3.45829e-12 -2.23921e-11 -2.05323e-12)
(-7.00705e-11 2.24278e-10 7.00205e-12)
(-1.2614e-09 7.56928e-09 -2.91474e-09)
(1.21707e-07 -1.97889e-07 1.68448e-07)
(-3.70456e-06 2.32209e-06 -6.65212e-06)
(3.43572e-06 3.15653e-06 1.05368e-05)
(-2.23771e-06 9.29644e-06 2.85508e-06)
(1.25031e-05 -1.51127e-05 1.37197e-05)
(9.61203e-06 -7.25002e-06 1.45534e-05)
(9.97355e-07 -8.20811e-07 2.11978e-06)
(-9.88378e-07 7.75725e-07 -4.53983e-06)
(1.35251e-06 -3.0435e-06 -1.97624e-06)
(-4.21376e-06 4.06934e-06 -7.46024e-07)
(-0.000144119 9.29398e-05 -5.43216e-05)
(0.000183334 -0.00019523 0.000146256)
(2.76824e-05 -0.000237147 0.000242139)
(0.000204974 7.25316e-05 -0.000299554)
(0.000222511 -0.000204434 -0.000154772)
(5.50031e-05 -0.000244643 1.53215e-05)
(-2.50216e-06 -5.83548e-06 3.4105e-06)
(-1.20908e-07 -2.34409e-08 1.25905e-07)
(-2.12753e-09 3.00285e-09 3.84125e-09)
(3.52609e-11 1.50993e-10 1.181e-10)
(1.70801e-11 2.08048e-11 1.21124e-11)
(-5.04361e-12 -6.56372e-12 -4.09858e-12)
(1.79636e-12 -6.60468e-12 -4.75761e-12)
(-2.04743e-12 4.62726e-13 5.49549e-13)
(-1.8181e-11 3.11501e-12 -7.16224e-12)
(-4.21757e-13 5.63601e-12 5.16876e-12)
(2.77418e-12 -6.28783e-12 3.77563e-12)
(-2.04576e-11 -9.72319e-12 3.51572e-11)
(1.84697e-10 3.65013e-10 -2.41959e-10)
(-2.90976e-12 4.8171e-10 -1.66364e-10)
(3.99334e-10 -5.35617e-10 2.96336e-10)
(8.68561e-13 3.45509e-11 -3.90545e-13)
(1.49077e-10 1.46431e-10 6.35273e-11)
(5.45921e-10 -3.17908e-10 6.34925e-10)
(1.05129e-10 -1.77878e-10 2.31394e-10)
(3.8568e-12 -1.27444e-11 1.49392e-11)
(3.21659e-15 -4.05165e-13 1.03398e-13)
(6.55121e-14 -7.49608e-14 9.65652e-14)
(4.34457e-13 -1.1898e-12 -1.58265e-12)
(-5.52107e-12 3.4669e-12 6.62104e-12)
(-1.34571e-10 2.06111e-10 -6.71692e-11)
(-4.64383e-09 4.48137e-09 -4.14652e-09)
(1.99889e-07 -5.82969e-08 3.12636e-07)
(-5.24241e-08 -8.73105e-07 -7.84321e-07)
(1.01631e-06 -1.45007e-06 7.993e-07)
(1.72723e-07 -1.3215e-07 2.20861e-07)
(1.40748e-08 -1.32611e-09 1.96666e-08)
(-1.17547e-09 -8.3042e-10 -9.74788e-10)
(3.35245e-08 -1.15834e-07 1.83567e-08)
(6.19261e-07 -4.41905e-08 1.24578e-07)
(-7.07597e-07 -2.60033e-07 -8.54793e-08)
(-1.3321e-06 -1.42684e-07 -5.4555e-07)
(9.62909e-08 -3.82001e-07 6.47168e-07)
(4.28636e-06 1.4336e-06 -6.00844e-06)
(3.92994e-06 -3.03501e-06 -2.65471e-06)
(2.35094e-07 -5.80249e-07 -1.47636e-08)
(-3.67604e-09 -6.75086e-09 6.0213e-09)
(-1.19592e-10 6.66486e-11 2.904e-11)
(1.50395e-12 -9.40496e-12 -1.53229e-11)
(-1.1643e-13 -5.81407e-13 -9.15087e-13)
(-4.1076e-14 -3.07713e-14 -3.25458e-14)
(6.90346e-15 -1.12393e-14 -5.42316e-15)
(-6.18148e-15 -9.90982e-15 -2.50648e-15)
(-7.9371e-15 2.58191e-14 1.5287e-14)
(6.64029e-14 4.05927e-15 5.23179e-15)
(-6.43321e-15 -6.45227e-15 -1.1454e-14)
(-1.09048e-14 1.38241e-14 -5.16805e-15)
(-2.20722e-14 -6.15098e-15 3.10234e-14)
(1.65733e-13 4.71843e-13 -3.79589e-13)
(2.08085e-13 2.80498e-12 -2.98981e-12)
(7.79248e-12 -1.20798e-11 9.83525e-12)
(1.44669e-13 -7.07955e-14 1.54239e-13)
(5.44261e-13 1.01525e-12 9.59136e-13)
(2.81332e-12 2.0099e-12 6.41035e-12)
(5.71513e-13 7.52521e-14 1.92346e-12)
(1.86327e-14 -2.38705e-15 1.08751e-13)
(-1.47852e-15 1.576e-15 -6.24296e-16)
(-2.11253e-16 -4.86154e-15 -1.89172e-15)
(1.44379e-15 -6.23286e-15 -4.30419e-15)
(2.57456e-14 -1.06304e-13 -1.17792e-14)
(1.77553e-13 3.77423e-13 1.03935e-13)
(-1.39819e-11 8.15667e-12 -1.04422e-11)
(5.94008e-10 -3.68025e-10 6.46226e-10)
(-2.20117e-09 4.3449e-10 -4.75692e-09)
(9.27202e-09 -5.57409e-09 3.56619e-09)
(2.99173e-09 -4.96245e-10 1.85108e-09)
(2.61199e-10 1.03178e-10 1.01747e-10)
(6.62317e-12 1.34204e-11 -2.93592e-12)
(8.46427e-11 -1.06099e-11 2.56606e-11)
(-3.89478e-09 -2.01925e-09 4.88412e-10)
(5.42897e-09 3.32908e-09 -1.02615e-09)
(5.4404e-09 3.41814e-09 -3.94332e-10)
(-1.1855e-10 -1.723e-11 7.0517e-11)
(1.22476e-08 1.05387e-09 -7.92354e-09)
(1.68447e-08 -1.38301e-09 -6.62477e-09)
(1.3178e-09 1.38081e-10 -2.07957e-10)
(3.20094e-12 4.89947e-11 2.0837e-11)
(-1.61885e-12 3.39048e-12 2.54483e-12)
(-7.38675e-14 1.6173e-13 1.68444e-13)
(-1.74667e-15 9.23274e-15 5.81122e-15)
(5.74671e-16 -1.41419e-14 9.43291e-16)
(-4.15357e-16 3.32123e-15 3.95657e-16)
(-9.7631e-16 -9.11626e-16 -1.87293e-15)
(-4.26445e-15 4.39408e-15 6.05959e-15)
(4.45777e-15 -4.16215e-16 1.49347e-15)
(-3.68724e-15 2.10306e-15 -1.84323e-15)
(6.12892e-15 -1.19514e-14 -4.6918e-15)
(-6.74921e-16 3.31998e-15 6.74404e-16)
(-8.47996e-15 1.07806e-14 4.75065e-15)
(1.01647e-14 -3.443e-15 -2.25426e-14)
(2.885e-14 -3.92156e-14 7.18258e-14)
(-7.35141e-16 2.11472e-15 -1.2405e-15)
(-1.41891e-15 -2.91493e-15 -3.36361e-15)
(8.77012e-15 1.11236e-14 2.23411e-14)
(4.87715e-16 3.01081e-15 2.33947e-15)
(5.83471e-17 1.81423e-15 -4.25689e-16)
(2.48225e-16 9.40942e-16 2.53766e-15)
(-1.23472e-16 3.99344e-15 4.71962e-15)
(8.31692e-16 3.18449e-15 4.75798e-15)
(-7.18165e-18 -8.78464e-16 5.12027e-16)
(-7.33097e-16 1.20777e-15 -6.02009e-16)
(-8.56473e-15 -4.37072e-15 -6.10024e-15)
(1.09056e-12 -5.97489e-13 1.00269e-12)
(-9.61161e-12 1.7468e-11 -1.76279e-11)
(7.26923e-11 7.4345e-11 -1.70617e-11)
(3.91127e-11 1.46535e-11 4.70473e-12)
(3.61031e-12 8.32173e-13 -3.15931e-13)
(2.70354e-14 -6.91624e-14 -5.11767e-14)
(-3.26506e-13 -3.75323e-13 7.5946e-14)
(1.35114e-11 1.1122e-11 -5.7648e-12)
(-2.33918e-11 -1.3137e-11 1.05315e-11)
(-1.44175e-11 -3.43118e-12 5.80739e-12)
(-4.00868e-13 -4.58694e-13 -8.72929e-14)
(4.10448e-11 2.19087e-11 -2.14226e-12)
(8.76438e-11 3.83491e-11 4.88055e-12)
(9.27756e-12 4.01131e-12 2.84353e-12)
(6.33501e-14 -2.83434e-14 3.40972e-13)
(-1.63286e-14 -1.27713e-14 2.16787e-14)
(-9.42979e-16 -2.01894e-15 2.60343e-15)
(3.12731e-15 2.64109e-15 -2.20993e-15)
(-1.49551e-15 5.5883e-15 5.54416e-16)
(1.58372e-15 2.24652e-15 -6.83774e-16)
(3.5484e-16 -6.33993e-16 2.28571e-15)
(3.87604e-15 -9.07495e-15 -7.05458e-15)
(2.26418e-16 6.91596e-15 5.98619e-15)
(-1.90888e-15 3.86685e-15 3.6378e-15)
(3.20564e-16 2.02866e-15 2.23454e-15)
(2.06452e-15 3.77562e-16 -9.07929e-16)
(3.34809e-15 3.49635e-16 1.9472e-15)
(9.67615e-15 -1.27909e-14 -1.67343e-15)
(2.43912e-15 -4.50616e-15 -1.29617e-15)
(-9.67163e-16 -6.43467e-15 -4.20352e-15)
(-2.68075e-15 -4.23296e-15 -3.86432e-15)
(2.16961e-15 3.35806e-15 2.35489e-15)
(2.01877e-15 2.14678e-15 4.48369e-15)
(7.08616e-16 1.8575e-16 2.10695e-15)
(3.61346e-15 1.86115e-15 2.22308e-15)
(3.63659e-15 9.35672e-16 -1.60647e-15)
(4.04172e-16 -5.23169e-15 7.64132e-16)
(-4.66054e-17 1.46285e-15 1.36593e-15)
(-9.44043e-16 3.78977e-15 -1.75599e-15)
(-3.82813e-16 -3.75577e-15 -1.9758e-15)
(-4.0812e-16 -1.05141e-15 3.00662e-16)
(-9.08988e-15 4.70347e-14 -3.95586e-14)
(5.215e-13 9.74624e-13 -3.07233e-13)
(3.28948e-13 1.60587e-13 -4.90189e-14)
(2.58645e-14 -1.12236e-14 4.23666e-16)
(-3.43946e-16 1.3944e-15 2.19347e-15)
(5.56858e-16 -8.58667e-16 1.67626e-15)
(-3.3009e-14 -1.47505e-14 1.40108e-14)
(5.32801e-14 4.90318e-15 -3.039e-14)
(1.95948e-14 -1.76282e-14 -1.63695e-14)
(-3.19769e-15 -2.75445e-15 -2.24437e-15)
(1.63736e-13 1.25257e-13 5.04559e-14)
(4.07973e-13 1.84576e-13 1.99656e-13)
(3.43058e-14 -1.89336e-14 5.53088e-14)
(-4.29445e-16 -2.9479e-15 4.41335e-16)
(-5.28225e-15 -4.30732e-15 4.24651e-15)
(9.63563e-16 6.2514e-17 -1.00144e-15)
(1.82267e-15 -3.83416e-15 2.99186e-15)
(1.13058e-16 8.87196e-15 -1.91342e-15)
(-1.13971e-15 5.87046e-15 1.34736e-16)
(6.48059e-16 7.17687e-16 -6.60225e-16)
(-2.47953e-15 6.46383e-15 6.7971e-16)
(-8.12323e-15 6.91117e-15 -2.53541e-15)
(-3.58368e-15 3.80447e-15 6.07896e-16)
(4.30446e-15 -7.76852e-15 -1.21531e-15)
(-1.06033e-15 -8.13254e-16 -1.19729e-16)
(2.01286e-15 -6.38326e-16 6.3634e-16)
(1.48518e-15 -1.01456e-15 5.40033e-16)
(-1.6881e-15 3.5761e-15 4.489e-16)
(-1.78259e-15 -7.75827e-15 -1.57611e-15)
(-1.24267e-15 -1.81517e-15 3.48227e-16)
(1.6871e-15 3.69636e-15 -1.34082e-15)
(-1.46951e-15 2.16325e-16 -4.35006e-15)
(3.51491e-16 -3.93258e-16 -5.67272e-16)
(3.58128e-15 2.48799e-15 -2.15285e-15)
(-3.84236e-15 7.29548e-15 -3.75049e-15)
(-2.65738e-15 3.54385e-15 2.17053e-15)
(-6.8081e-16 1.28879e-15 -4.149e-16)
(1.40305e-15 2.48571e-15 7.96296e-16)
(1.95241e-15 -4.69049e-15 -3.73486e-16)
(-1.72911e-15 -1.05917e-15 -4.09854e-16)
(7.88286e-16 4.61023e-15 -4.77694e-15)
(4.28272e-15 1.23711e-14 -2.55063e-15)
(7.4997e-15 5.88878e-15 7.2594e-15)
(-6.87402e-16 4.56144e-15 -2.33716e-16)
(-1.71177e-15 -3.90187e-15 1.76483e-15)
(1.44193e-15 1.44676e-15 1.40888e-15)
(2.04815e-15 -1.18628e-16 1.11671e-15)
(-4.89351e-16 1.25308e-15 6.65914e-16)
(1.53533e-15 -2.61546e-15 -1.41449e-15)
(8.70756e-16 -2.65617e-15 5.30897e-16)
(2.43593e-15 -2.85494e-15 3.44124e-15)
(2.56647e-15 -2.15601e-16 2.21341e-15)
(-2.36852e-15 -1.02777e-14 9.55878e-15)
(1.90349e-15 1.53017e-15 -8.36551e-16)
(-1.84817e-16 -4.98889e-16 1.36958e-15)
(1.68389e-15 3.28425e-15 -7.33612e-16)
(-3.36851e-15 -6.48452e-15 1.63524e-15)
(-6.88386e-16 3.01055e-15 -2.97981e-15)
(-7.73513e-17 -3.31214e-16 6.85284e-16)
(-1.33626e-15 3.33217e-15 -4.27631e-15)
(8.4374e-17 3.35327e-15 -1.49875e-15)
(2.54005e-16 5.75173e-15 9.21158e-15)
(9.46587e-15 -1.64595e-14 -5.66236e-15)
(4.56612e-15 -6.92318e-15 -3.05143e-15)
(-2.07781e-15 1.81344e-15 1.31057e-16)
(3.41884e-15 -1.04231e-15 7.12368e-16)
(-2.0463e-16 1.88924e-16 1.46638e-16)
(5.28343e-16 1.79814e-15 -7.8951e-16)
(-7.48382e-16 -9.12623e-16 9.72426e-17)
(-9.82547e-16 -8.34119e-16 -1.88467e-15)
(-3.01032e-16 -1.18455e-16 -1.60644e-15)
(-1.19882e-15 -2.54204e-15 -3.23323e-15)
(2.19021e-15 -1.40426e-15 6.23324e-16)
(-2.42425e-15 9.13459e-16 1.3422e-15)
(-3.89877e-15 1.79036e-15 1.38182e-16)
(4.24504e-17 -4.17961e-15 -1.91057e-15)
(-3.72795e-15 -1.6756e-15 -1.2921e-15)
(4.6514e-15 -2.66463e-15 -1.45363e-15)
(-5.88769e-15 5.0706e-15 1.76138e-15)
(-1.72874e-15 2.53782e-15 -6.6856e-16)
(-1.33837e-15 -5.0022e-15 -9.81145e-16)
(-3.04697e-15 3.7197e-15 -2.988e-15)
(3.62095e-15 -7.69902e-16 -3.29819e-16)
(1.67437e-15 -4.92342e-15 4.46673e-15)
(-1.64008e-15 1.59098e-15 2.68686e-15)
(2.72631e-16 -1.51716e-15 5.2555e-17)
(8.33602e-16 -4.78877e-15 5.37728e-15)
(2.46131e-15 -6.23876e-15 6.34897e-15)
(2.05531e-16 -1.74872e-15 1.9853e-15)
(7.43588e-16 -3.04462e-15 -4.58922e-15)
(9.35358e-16 -1.29045e-15 -8.23411e-16)
(-1.27432e-15 1.91583e-15 -1.97567e-15)
(-2.01526e-15 1.24689e-15 3.90358e-16)
(2.57477e-15 3.52669e-15 -3.22284e-15)
(-2.6238e-15 -4.3923e-15 1.42285e-15)
(-5.48513e-16 -6.92231e-16 -4.7706e-17)
(1.08598e-15 4.43275e-16 5.02502e-16)
(3.24205e-15 3.10354e-15 -3.67669e-15)
(5.11185e-16 -3.2392e-16 -7.63068e-16)
(-1.98716e-15 1.20198e-15 8.1081e-16)
(-4.95527e-15 2.09577e-15 -2.07166e-15)
(3.47815e-15 -1.1584e-16 4.1958e-15)
(-1.17841e-14 9.98217e-15 1.57743e-14)
(6.78475e-17 5.81958e-16 -3.86491e-16)
(4.4243e-16 -4.57755e-15 -4.45855e-15)
(-1.61987e-15 1.98531e-15 -1.7345e-15)
(-6.93873e-16 2.98095e-16 3.42129e-15)
(-9.67027e-16 3.11418e-15 2.91132e-15)
(7.84678e-17 9.22409e-16 -4.96544e-15)
(5.89011e-17 -7.0468e-16 1.57192e-15)
(-2.15012e-16 1.17848e-16 -2.40372e-15)
(-3.47734e-16 -2.15104e-15 -2.34022e-15)
(-4.20366e-15 -2.75561e-15 -3.61492e-15)
(4.18054e-15 -4.00925e-15 1.07687e-15)
(7.08463e-15 -3.72731e-15 -1.29418e-15)