/*--------------------------------*- C++ -*----------------------------------*\
| =========                 |                                                 |
| \\      /  F ield         | OpenFOAM: The Open Source CFD Toolbox           |
|  \\    /   O peration     | Version:  5.0                                   |
|   \\  /    A nd           | Web:      www.OpenFOAM.org                      |
|    \\/     M anipulation  |                                                 |
\*---------------------------------------------------------------------------*/
FoamFile
{
    version     2.0;
    format      ascii;
    class       volScalarField;
    location    "50.4676134421789371";
    object      GradTV;
}
// * * * * * * * * * * * * * * * * * * * * * * * * * * * * * * * * * * * * * //

dimensions      [0 -1 -1 1 0 0 0];

internalField   nonuniform List<scalar> 
60000
(
-10.0033
-10.065
-5.43016
0.94361
3.9566
1.39384
-0.0673833
-0.555299
0.0633609
-1.6915
-5.53389
-7.15482
-3.60824
0.419854
0.843975
0.999406
4.61218
7.8304
5.6634
-0.892298
-4.53192
-4.96327
-2.59712
6.22669
17.8285
24.208
19.4469
7.74251
-2.807
-5.66779
-2.9033
-2.37403
-5.17265
-7.34862
-7.56486
-2.23665
2.14211
0.272594
-3.81564
-7.78669
1.61977
1.84852
0.879153
-0.561279
-1.42561
-0.900851
-0.127202
0.361576
-0.171368
0.270366
0.891957
1.29935
0.93529
-0.0921799
-1.00355
-1.85317
-2.38384
-2.10449
-0.466783
1.13956
1.73082
1.19235
0.259157
-0.641258
-1.16167
-1.26921
-0.842487
-0.273067
0.0903668
0.225849
0.0989843
-0.117877
-0.100335
0.182828
0.659544
0.71809
-0.28433
-1.01332
-0.559201
0.604727
3.14139
5.39825
3.0151
-0.615415
-2.58121
-2.75149
-1.41711
0.563068
-0.152747
-0.795714
0.988083
4.05155
4.69516
1.52206
-2.62704
-5.72701
-7.71555
-7.52067
-2.29548
7.78764
15.6646
13.4378
3.16876
-8.86517
-15.4008
-15.1599
-8.75565
-0.317369
5.99705
7.70097
4.90819
0.246148
-2.27452
-1.07493
1.95724
4.09808
1.47645
-3.93503
-5.66069
-2.41305
0.598972
2.5569
1.90009
0.136865
-0.637647
-0.781528
-0.613255
-0.125169
0.116623
-0.643876
0.00586503
1.86169
2.78345
1.48791
-0.758775
-2.0949
-2.51881
-1.95316
-0.611475
2.6945
6.71653
7.06805
1.98671
-4.91606
-7.93386
-6.59554
-2.88536
1.40559
4.7862
5.57191
4.04138
1.81654
-0.0814551
-0.668539
0.297575
1.70045
1.33139
-0.735266
-2.33834
-1.90344
-0.255107
0.355724
0.504591
0.1743
-0.0558799
-0.0737426
-0.0630705
-0.0743151
-0.0212513
-0.119984
-0.0965434
0.311646
0.63645
0.514342
0.0225004
-0.32186
-0.44916
-0.377162
-0.195954
0.248892
0.917433
1.43981
0.636144
-0.951366
-1.61032
-1.21001
-0.703401
-0.240476
0.562708
1.22021
1.11571
0.683381
0.267093
-0.0463021
-0.128822
0.160719
0.313919
0.0466922
-0.336735
-0.541134
-0.0636419
-0.000853238
0.0113411
-0.00941677
-0.0154105
-0.00845025
0.000106837
-0.00140121
-0.0203775
-0.0341237
-0.0285063
0.0264892
-0.0238936
-0.167811
-0.0955628
0.0778823
0.0618737
-0.0962301
-0.094662
0.0218323
0.100418
-0.0632124
-0.0912345
-0.0373796
0.134741
0.128244
0.0744408
-0.00684911
-0.0476262
0.104826
0.182896
0.0767794
0.0077511
0.00147562
9.43874e-05
-0.0234977
0.00799646
0.00289531
-0.00414198
-0.0478792
0.0107561
0.0218065
0.00497551
-0.0208878
-0.0200756
-0.0146175
-0.00981487
0.0016217
-0.00785897
-0.020841
-0.0100536
0.00682303
-0.0269489
-0.161836
-0.124407
0.0707675
0.132987
0.00476741
-0.0581341
0.042432
0.0809105
-0.144524
-0.252085
0.0445537
0.25938
0.108185
0.0197963
0.0217023
0.00440421
-0.0399796
-0.0213152
0.00760067
-0.0588882
-0.104602
-0.0521576
-0.00841691
-0.012586
-0.0166932
-0.0186391
0.00877145
0.00728124
0.0134244
0.0154952
0.00268599
-0.00192956
-0.00480992
-0.00704309
-0.00461965
-0.00634712
-0.012521
-0.00737884
0.00351559
-0.000526362
-0.0397778
-0.035129
0.0300454
0.0746198
0.0503529
-0.0444655
0.060414
0.109813
-0.0801066
-0.188735
0.050235
0.134874
0.0348285
-0.00230184
-0.00120312
0.00284732
0.00308778
-0.0295687
-0.0263138
-0.00203873
-0.0322822
-0.0501914
-0.0212073
-0.00826353
-0.00812871
-0.013616
-0.00711104
-0.000411458
0.00398453
0.00644224
0.00351464
0.000885626
-0.000879665
-0.000657492
-0.00125567
-0.00305672
-0.00544069
-0.00357793
0.001652
0.00149121
-0.00761041
-0.00339504
0.00909689
0.0201351
0.0410542
-0.0116635
0.0203003
0.117569
-0.0382035
-0.0922919
0.0517958
0.0487436
0.00452897
-0.00167475
0.000272127
-1.2947e-06
0.00162674
0.00121157
-0.00882495
-0.0088898
-2.68497e-05
-0.00634358
-0.0103581
-0.00627027
-0.0042941
-0.0041473
-0.00479198
-0.000887924
0.000393473
0.00162509
0.00126487
0.000228302
-0.000354947
-0.000378429
-1.08222e-05
-0.000460183
-0.0013965
-0.000694844
0.0017255
7.87255e-05
-0.000524598
0.00213639
0.00262677
0.000158132
0.0116936
0.00556482
-0.0140241
0.0531113
-0.0125357
-0.0469676
0.0264114
0.0116343
-0.00213049
-0.00107
-0.000494421
9.14745e-05
-0.000202716
0.00051868
0.000415641
-0.00113206
-0.00150591
-2.25408e-05
-0.000702544
-0.00167199
-0.00145897
-0.00105548
-0.00145147
-0.000456064
-0.000185444
0.000247574
0.000286543
0.00023438
-2.10212e-05
-6.56205e-05
7.43209e-07
0.000161426
-0.000446286
-0.000148873
0.000756764
-6.02047e-05
-6.32369e-05
0.00128314
0.000751913
-0.000519018
0.00111511
0.00488087
-0.00858974
-0.00426408
-0.00281388
-0.0250742
-0.000126895
-0.00121465
-0.00160994
-0.00061503
-7.37549e-05
9.67654e-06
-3.15405e-06
-1.54362e-05
1.17646e-05
0.000228247
-4.10048e-06
-0.000126256
-5.11564e-06
1.71141e-05
-0.000117927
-0.000276636
-0.000362131
-7.2613e-06
2.44048e-05
-6.1427e-06
-2.09085e-06
-6.10111e-06
-1.91383e-06
-1.92291e-06
-1.06547e-06
1.11565e-06
-1.83405e-06
-0.000139902
0.000111159
4.48798e-05
-0.000187465
4.44558e-05
-2.84976e-05
9.25705e-05
0.000173736
0.00178981
-0.000638503
-0.00995194
-0.00167908
-0.00798449
-0.00513789
-0.00171383
-0.00061135
-0.000380839
-5.65202e-06
-2.7277e-07
5.52733e-07
-1.04352e-06
-6.25838e-07
-2.97469e-07
5.60192e-07
-1.84271e-08
-1.91873e-07
-1.86004e-07
2.08429e-06
1.38899e-07
1.48304e-06
-3.72534e-07
-2.40068e-06
-3.77599e-06
-1.19084e-06
-1.09566e-07
-9.6903e-09
3.89016e-09
-6.17988e-08
4.21624e-10
1.1695e-06
-1.81008e-06
0.000118369
1.75803e-05
-0.000152687
-0.000146336
-0.000189984
-9.79856e-06
-2.72358e-06
0.000367856
0.000330073
-0.00308132
-0.00170253
-0.000594202
-0.00205209
-0.000997832
-0.000541528
-8.79078e-06
-6.11602e-08
6.11519e-09
-2.62096e-09
3.66597e-09
2.22075e-09
1.32707e-09
-1.65562e-09
-1.49523e-10
5.44315e-10
-2.63549e-09
1.449e-07
3.89651e-08
3.85126e-08
2.25067e-09
-7.91302e-09
-6.80866e-08
-2.45547e-08
-1.78833e-09
-5.05424e-11
2.0029e-12
-1.1451e-10
6.70216e-09
-1.54125e-07
2.64858e-06
1.80237e-06
8.23465e-06
-1.66282e-05
-9.63979e-06
-1.68734e-06
1.18569e-06
-2.13504e-06
-2.34601e-06
0.000218982
-0.000342892
-0.000527211
0.000166802
-0.000266047
-0.000581088
-1.46887e-05
-8.12799e-08
5.4119e-09
2.18152e-10
1.52387e-11
-4.51882e-12
-2.59602e-12
-2.44352e-12
2.85321e-12
6.99973e-13
-3.09199e-15
-1.81664e-12
1.96537e-10
3.295e-10
-9.42367e-10
-2.25435e-12
-4.78688e-11
-7.56979e-10
-2.48806e-10
-1.38238e-11
-1.98169e-13
5.91814e-14
-5.73902e-13
-4.62414e-12
2.72207e-10
-2.22349e-09
-4.88151e-08
-6.13789e-07
-1.30516e-06
-1.26618e-07
-4.467e-09
-4.79938e-09
-7.68313e-08
-8.98388e-08
2.11567e-07
-3.7344e-07
-7.52886e-07
1.78247e-06
-3.28706e-06
-1.16341e-06
-1.41755e-08
1.84709e-11
-2.73651e-11
-1.37223e-12
-4.01845e-14
7.64621e-17
-7.72607e-15
-2.52431e-15
2.20703e-15
-2.00736e-15
-1.68959e-14
7.03226e-15
7.65207e-14
1.48627e-12
-7.21689e-12
-6.25138e-14
-1.89231e-13
-4.38234e-12
-1.14934e-12
-3.89753e-14
3.93778e-16
-9.76775e-16
8.04017e-15
-6.8218e-14
3.83432e-13
1.97076e-12
-8.18446e-11
5.94329e-10
-3.36641e-09
-4.19428e-10
8.80755e-11
-1.07308e-11
-3.1007e-11
-5.88885e-10
-2.50921e-09
5.92986e-09
-1.24169e-10
5.21623e-10
-1.2419e-09
2.978e-10
8.32623e-11
3.9465e-12
1.12965e-13
-2.37425e-15
3.99289e-16
-6.97854e-16
2.56095e-15
-4.42684e-15
-1.85551e-15
1.64386e-16
1.3142e-15
-8.32974e-15
1.24442e-15
2.12546e-15
-9.65983e-15
-2.47905e-15
-4.56833e-15
1.14937e-15
-1.0041e-14
1.16375e-16
-4.13565e-16
3.57353e-15
5.15127e-16
-3.74598e-16
3.82938e-16
1.01557e-14
-4.63935e-14
4.41524e-12
3.61294e-11
8.44635e-12
8.80403e-13
2.06696e-15
1.77817e-13
1.36829e-12
9.45789e-12
-6.61062e-12
-6.3828e-14
5.75247e-12
3.1811e-11
6.52437e-12
1.12298e-13
-2.12158e-14
-8.2332e-16
3.13343e-15
-4.82121e-15
2.53133e-15
-8.5927e-16
5.93781e-15
5.17062e-15
2.66448e-16
1.69551e-15
6.28262e-16
-6.55846e-15
-5.75061e-15
-1.12084e-15
-2.11156e-15
-2.29974e-16
5.24455e-16
-5.46724e-15
-5.87036e-15
6.39687e-16
-2.32044e-16
-5.02031e-15
5.85108e-16
-6.97491e-16
3.49345e-15
2.38518e-15
-6.44847e-15
3.33821e-13
1.01719e-13
-2.98265e-15
1.87926e-16
-3.64384e-15
6.72342e-15
-8.72428e-15
-1.59024e-14
1.62101e-15
2.12706e-14
1.46537e-13
-3.01798e-15
-2.01564e-15
1.80049e-16
-1.12001e-15
2.36739e-15
-1.90952e-15
-2.38284e-16
-3.07056e-15
1.30984e-15
-4.02876e-15
-9.03598e-16
-3.59673e-15
-8.75324e-16
-3.98655e-16
-3.68869e-15
2.79699e-15
-4.97967e-15
-1.19342e-15
-3.91553e-15
4.50834e-15
-2.13285e-15
-7.12428e-15
7.3751e-15
-3.36524e-15
4.78357e-15
8.63079e-16
-5.19788e-15
7.87245e-16
6.36701e-15
4.72408e-15
2.817e-15
2.37487e-15
-2.54723e-17
4.18062e-15
5.87893e-16
8.92338e-16
-1.29053e-15
3.84642e-15
2.57603e-15
1.40209e-15
-7.66491e-15
2.28687e-15
-2.92852e-16
-4.92572e-16
-3.81257e-15
-1.13476e-15
3.20799e-16
-1.5511e-15
-4.01513e-15
3.11204e-15
1.36636e-16
9.28882e-16
-3.69687e-15
2.0424e-16
9.28559e-16
9.16746e-16
3.23448e-16
5.37508e-16
1.62262e-15
2.7576e-15
2.08249e-15
7.7764e-16
5.93946e-15
6.74351e-15
-5.48951e-15
-0
-3.96467e-16
8.54976e-16
8.50994e-17
6.85062e-16
1.9493e-15
-1.86716e-15
4.1798e-16
2.08916e-15
-5.83107e-24
-2.86107e-16
-2.9292e-15
-9.49866e-16
8.93328e-16
1.85994e-15
6.34104e-15
1.43091e-17
1.67409e-15
-6.80623e-16
5.79625e-16
1.16301e-15
-2.44229e-15
-0
3.34608e-16
5.49676e-15
-1.16833e-14
9.63532e-17
-3.33538e-15
3.23446e-16
5.56937e-16
-1.03592e-15
-3.79711e-16
-8.99221e-16
9.23625e-16
3.76838e-15
3.02225e-15
-5.84627e-16
3.23799e-15
-1.85644e-16
5.36612e-16
7.30573e-15
-5.50671e-15
-2.23314e-15
-5.36844e-15
3.46984e-15
3.60038e-15
1.27629e-15
4.54736e-16
2.9016e-16
4.46582e-15
-3.93672e-15
6.57215e-15
-2.28736e-15
-1.93321e-15
1.69011e-15
-3.92489e-16
-9.72162e-17
2.04891e-15
-3.13777e-15
1.09998e-16
-1.55005e-15
-8.0674e-17
5.22594e-16
-3.2296e-15
1.46811e-15
-9.62621e-15
1.38662e-15
5.6145e-15
-2.57364e-15
-2.39347e-15
3.54554e-15
1.04314e-15
3.27872e-15
1.37872e-15
1.8383e-30
-2.31963e-16
3.04466e-15
-2.79824e-15
-3.98603e-15
5.24021e-15
-2.00208e-15
-2.94952e-15
-3.29587e-15
1.96796e-15
5.92565e-15
-4.22537e-15
9.53432e-15
-2.04387e-15
3.82682e-15
3.00068e-15
6.44797e-17
-3.6224e-15
3.996e-16
-2.27997e-16
5.4254e-15
5.44115e-15
-4.98092e-15
-3.00762e-15
4.79287e-16
-4.58879e-15
-2.24379e-15
1.1476e-15
-1.07485e-15
-3.41755e-15
-3.8774e-15
1.98682e-15
-2.17674e-15
-4.66987e-15
3.19344e-15
-4.69941e-15
-3.2529e-15
-1.83524e-15
-6.3898e-16
2.87392e-16
3.72986e-16
-1.95098e-15
2.45481e-15
2.63404e-15
2.3417e-15
1.9598e-15
4.69847e-16
5.57914e-15
-1.0159e-14
-6.78629e-16
1.29504e-15
7.39055e-16
3.98789e-15
-3.56517e-15
-2.66557e-15
5.00849e-16
-3.4563e-16
-1.12087e-15
-2.36398e-16
-7.37759e-16
2.72957e-15
-3.17237e-15
5.12779e-16
-2.52549e-16
-8.78982e-16
5.55363e-16
6.03698e-15
-5.72113e-15
1.02285e-15
9.04388e-15
-7.09325e-16
1.01689e-15
9.90108e-16
2.86962e-16
-6.64278e-15
-2.56978e-15
4.87358e-16
1.77794e-15
-2.04602e-15
-1.71008e-15
4.06012e-15
-7.96558e-16
-2.93315e-15
4.2127e-15
-5.09338e-15
-1.84272e-15
-2.20892e-16
-2.45241e-15
-2.94008e-15
2.06884e-15
9.71647e-16
4.27102e-18
1.68888e-17
-9.13518e-16
-7.40485e-16
-1.09124e-15
3.81146e-16
2.62878e-15
1.06654e-16
-3.55165e-16
1.78741e-15
-7.26555e-31
-2.44137e-15
3.30942e-17
-6.14313e-16
-5.32535e-16
6.43705e-24
3.08127e-17
2.52447e-15
5.8765e-17
2.41592e-15
4.57517e-15
-2.89898e-15
-5.78617e-16
1.76407e-15
-3.84076e-16
-2.19266e-15
-4.76818e-15
3.52337e-15
2.94211e-17
2.11867e-16
3.66112e-15
-3.63061e-15
-1.40098e-15
6.79152e-15
7.31831e-16
-1.68654e-15
3.12786e-15
-2.57255e-15
-1.80652e-15
-2.39371e-17
-1.53733e-15
-6.69426e-16
-1.55479e-15
4.57749e-16
-3.54828e-15
-1.1706e-15
1.74446e-15
2.30052e-16
-1.07191e-16
2.81766e-15
-0
6.30059e-15
-1.73105e-15
-8.73533e-16
9.51054e-16
1.18663e-15
2.68983e-15
-3.39255e-15
-1.70112e-16
-1.62958e-16
-1.89817e-15
-1.03696e-15
8.49578e-17
0
2.82758e-15
3.78112e-15
-3.28537
-4.73578
-4.24908
-0.433906
2.89949
4.45413
4.4929
4.91382
4.0622
2.59988
1.87147
3.51175
6.27556
7.96231
9.30214
11.964
14.3315
14.0417
10.0178
3.03919
-1.59438
-1.36995
-0.297449
-2.79899
-1.42628
-0.048091
-2.0825
-5.24658
-3.583
2.72441
8.38331
9.3025
6.72535
1.33052
-1.65017
2.96855
7.40472
2.54468
-1.85705
-2.23963
2.07444
1.82
0.740476
-0.758544
-1.97322
-2.4393
-1.6852
-0.613895
0.553551
0.908055
0.799634
-0.0832641
-1.05681
-1.82106
-2.4273
-2.87324
-2.99832
-2.71084
-1.76071
-0.314916
0.575073
0.709067
0.433853
-0.00605363
-0.38752
-0.350513
-0.100838
0.0112377
-0.00607027
-0.0704162
-0.198582
-0.260271
-0.209327
-0.122789
0.393324
1.17524
0.187071
-0.418326
0.721092
1.58732
4.86895
5.0468
2.16197
-1.92479
-5.11203
-6.91113
-5.24344
-0.810379
3.91656
5.79499
5.06734
2.2697
-1.68902
-5.47691
-8.55063
-10.5415
-11.2528
-10.6554
-7.205
1.29716
11.1943
14.6092
8.95238
0.359316
-6.52698
-7.91935
-4.28983
0.0866488
1.43811
-0.518066
-3.71714
-5.32754
-3.7243
-0.519655
4.34919
8.56551
6.54708
0.179544
-0.750921
1.96544
1.4009
2.19001
1.18657
-0.635039
-1.65903
-2.14715
-2.00004
-0.465441
1.38082
2.68376
2.20878
1.41468
-0.00116984
-1.65712
-2.7643
-3.06297
-2.76185
-2.53874
-1.67284
1.67921
6.62383
8.69874
6.13137
0.875828
-3.72225
-4.4783
-2.09707
0.799605
1.90634
1.09757
-0.208264
-0.813334
-0.200808
1.11703
2.73043
3.8781
3.19127
0.47758
-1.13335
-0.353167
0.0700252
0.344698
0.300598
-0.0275299
-0.195456
-0.227075
-0.283294
-0.184817
0.107164
0.408165
0.461939
0.367409
0.152842
-0.15232
-0.391637
-0.471875
-0.42541
-0.462891
-0.597372
-0.191448
1.23642
1.96254
1.512
0.340674
-0.845748
-1.27454
-0.899991
-0.106185
0.459178
0.426908
0.168306
0.0397424
0.0910294
0.237615
0.457573
0.788051
0.683882
0.2035
-0.223163
-0.232198
-0.00368691
-0.02832
-0.0588999
-0.0200824
0.0371978
0.0357926
-0.00149834
-0.0351577
-0.00510738
0.0202258
-0.0135111
-0.0299035
-0.0378051
-0.00413024
0.0372541
0.0285286
0.0170139
0.048618
-0.0221385
-0.195404
0.235135
0.466563
0.0241011
-0.0983966
-0.000307593
-0.0124469
-0.124002
-0.115225
0.00913477
0.0344042
-0.0106222
-0.00242087
0.0161515
0.0189983
0.0533871
0.11279
0.0894425
0.00189732
-0.000262446
-0.0171713
0.0185456
0.000164162
-0.0632388
-0.0405494
0.0309221
0.0309923
0.00429645
-0.00287537
-0.00295693
0.00333402
-0.037419
-0.100855
-0.084924
-0.020679
0.040298
0.0460305
0.0206549
0.0335896
0.0630114
-0.0761386
0.0476834
0.285437
-0.09092
-0.185288
0.078691
0.150301
0.0396419
-0.0266017
-0.0278667
-0.0111109
-0.0123038
-0.0147858
-0.0185469
-0.0466035
-0.0297176
0.0227456
0.0242973
-0.0374527
-0.0231476
0.0236155
0.0157673
0.017274
-0.00618886
-0.0150637
0.0153968
0.0164251
0.00110798
-0.00121826
0.00974068
0.000142497
-0.00168016
-0.0432602
-0.0563231
-0.0172065
0.0166759
0.0223473
0.00568841
-0.00571899
0.0345254
-0.0302053
-0.0225495
0.179845
-0.0127763
-0.126849
0.0445025
0.0681688
0.0130558
-0.00541074
-0.00629464
-0.00516402
-0.00396531
-0.0030552
-0.00120252
-0.00284556
-0.0228044
0.0026272
0.0156628
-0.00642816
-0.0324011
0.00120937
0.00230156
0.0098904
0.0107513
0.00548006
0.00952703
0.00763407
0.00175365
-0.00195102
0.00638248
0.00709188
-0.000259538
-0.0044913
-0.014893
-0.00535318
0.00532878
0.0070608
0.00342659
-0.00880135
0.0128557
-0.0167755
-0.0346373
0.0822112
-0.000724229
-0.0613488
0.0184897
0.0202455
0.00340168
-0.00142931
-0.000962545
-0.000413079
3.49078e-07
3.67216e-05
-0.000636249
0.000176385
-0.00178014
-0.00287388
0.00486587
0.00282684
-0.0104194
-0.0102732
-0.00284132
0.00243789
0.00780355
0.00808067
0.00543646
0.002337
0.000813897
-0.000321577
0.000537815
0.00552149
0.00155226
-0.000855773
-0.000512044
1.49794e-06
-0.000293473
0.00108307
0.00269966
-0.00410708
0.00460051
-0.00654234
-0.0197573
0.0256187
-0.00570381
-0.0250186
0.00552327
0.00439912
0.000395191
-0.00014933
-0.00016359
-0.000143137
-1.68487e-05
7.73368e-05
0.000118519
-3.64981e-05
0.000132414
-0.000207635
8.47258e-06
0.00032382
-0.000962817
-0.00520569
-0.00185924
-0.000362823
0.00275301
0.00349574
0.00170705
0.000219304
-3.02703e-05
0.000305362
1.29266e-05
0.000772481
0.0019334
-0.000739017
-0.001324
-0.000328217
-0.000493244
0.00025297
0.00123422
-0.000888525
0.00132282
-0.00159145
-0.00677565
0.00300829
-0.00441607
-0.00883072
0.000525844
0.000565928
-0.000212414
-0.000178341
-0.000129108
-7.78377e-06
-3.45081e-06
-6.83464e-06
8.07669e-06
-4.31432e-06
7.68488e-05
-2.07941e-05
1.11308e-05
-0.000449466
-7.43589e-08
-0.00084224
-0.000624365
-0.000327563
0.000369653
0.000672808
0.000257584
-7.73183e-06
-3.69813e-05
4.75583e-06
0.000439788
-0.000306331
0.000375248
-9.85725e-05
-0.00130159
-0.00036863
5.8515e-05
7.72914e-05
0.000241867
-4.36771e-05
0.000302885
6.57924e-05
-0.00106629
-0.00109232
-0.00198001
-0.00193742
-0.000408537
-0.000251822
-0.000283727
-1.66703e-05
-5.61705e-07
2.49946e-08
3.21824e-08
-4.39894e-07
-7.83909e-07
6.59273e-07
3.27889e-06
2.79464e-06
2.50251e-05
-5.44503e-06
-0.000189744
-1.91419e-05
1.17542e-07
-0.000250892
6.41629e-05
3.37238e-05
2.28826e-06
-1.6341e-06
-6.50606e-07
5.40456e-07
8.64704e-06
-2.44076e-06
-4.39988e-05
1.72164e-05
-6.43656e-05
-0.000267217
5.05024e-05
4.63835e-06
4.57246e-07
-9.81102e-06
0.000189051
0.000115001
-0.000155103
-0.000794096
-0.000604792
-0.000156279
-0.000385698
-0.000288786
-1.70165e-05
-2.847e-07
5.15799e-10
3.2798e-11
-4.95356e-11
1.14834e-09
6.7707e-09
-1.68545e-08
1.62423e-08
1.89828e-07
2.75623e-09
-7.02067e-08
-3.6814e-06
-2.29575e-06
1.1099e-06
1.95336e-06
1.3136e-06
7.98898e-08
-7.50102e-08
-1.59041e-08
-4.16214e-09
1.95116e-08
2.64405e-07
5.62657e-07
-5.88725e-08
-9.26777e-07
-1.03835e-05
-7.24896e-06
-2.39829e-07
-6.13992e-08
-2.30678e-09
-3.02033e-07
-9.81233e-07
2.18704e-07
6.79184e-06
-0.000477658
-3.77559e-05
4.42397e-06
-0.000296088
-2.08053e-05
-2.53346e-07
1.06078e-08
5.29437e-10
5.76719e-12
-2.19547e-12
1.20033e-11
-2.9087e-12
1.22696e-10
-3.42888e-10
2.87675e-10
3.18258e-12
-4.57715e-10
6.94633e-09
1.40842e-07
6.15923e-09
3.82966e-08
3.35428e-08
-5.2584e-09
-1.08588e-09
-6.19886e-11
1.24571e-11
-1.97626e-10
8.84952e-10
-5.31577e-10
-3.49762e-11
6.69932e-10
-2.5003e-08
-4.44731e-08
-7.60266e-09
-1.27073e-09
-1.22446e-10
5.09846e-10
1.79659e-09
-2.06486e-08
9.01556e-07
-2.52728e-07
1.79243e-06
-1.00063e-07
-2.87961e-06
-8.87446e-08
4.25439e-09
2.69102e-10
6.58875e-12
2.55392e-14
7.85621e-15
-8.3592e-14
-5.17009e-13
-3.23721e-14
1.72937e-12
-2.24597e-12
3.55297e-14
-4.54949e-12
9.72202e-11
-3.05389e-10
6.81241e-12
2.8812e-11
-1.09074e-10
-8.18102e-11
-4.22883e-12
-1.60696e-14
1.39689e-14
3.84254e-13
-5.62209e-12
-3.8588e-12
7.92833e-14
-2.76857e-12
1.67855e-11
-1.74435e-10
-7.19175e-11
-8.07753e-12
-2.946e-13
4.34967e-13
3.63892e-12
1.52924e-10
-2.95588e-09
6.27579e-11
2.18833e-09
1.19273e-08
5.97126e-09
1.02745e-09
5.46424e-11
1.19062e-12
1.9428e-14
-1.42698e-15
-3.32072e-16
3.21035e-15
5.62218e-16
7.16493e-15
-2.06512e-15
1.54489e-14
6.32152e-15
-3.94668e-14
5.36239e-13
-1.86539e-12
1.55103e-16
-4.58966e-13
-1.14626e-12
-3.14054e-13
-8.56186e-15
7.91997e-16
-1.33736e-15
-2.07049e-15
1.42228e-14
1.25455e-14
2.20857e-15
-1.74845e-14
3.97207e-13
4.41918e-13
-2.64983e-13
-3.93177e-14
4.93684e-15
-3.12729e-15
2.27263e-14
5.02977e-14
8.92771e-12
6.99475e-13
4.87029e-13
1.56803e-10
1.01056e-10
4.75163e-12
-3.72571e-13
-3.36059e-14
3.45064e-15
1.53848e-15
-3.86902e-17
7.18222e-15
-1.78056e-16
-4.29635e-15
2.95078e-15
-1.87128e-15
5.84139e-15
3.21409e-15
-1.68263e-15
-1.58234e-14
8.91183e-16
-4.04419e-15
-8.53792e-15
-6.38743e-15
-1.705e-15
-5.72134e-15
3.44475e-15
-6.55207e-16
5.69498e-15
-5.11491e-15
1.41772e-15
3.23261e-15
6.84517e-15
1.15111e-14
1.62213e-15
2.71275e-15
1.69312e-15
1.39198e-15
6.47899e-15
-1.95091e-15
-1.23481e-14
-4.29494e-15
-6.18993e-14
8.68633e-13
4.43286e-14
-9.59305e-14
-5.4042e-15
3.58234e-16
-2.08118e-15
3.4983e-15
-1.42245e-15
7.62107e-15
4.98194e-15
-0
-3.48182e-15
2.48592e-15
2.03403e-16
2.54486e-15
-6.296e-16
-5.474e-18
4.00564e-16
-2.29235e-15
-2.79101e-15
-1.08821e-14
3.20756e-16
4.32261e-15
1.35812e-15
2.22454e-15
-1.28467e-15
-1.09541e-15
4.07015e-16
3.06721e-15
-9.48872e-15
7.52772e-15
7.79349e-16
-2.1729e-15
-2.29398e-15
1.37598e-15
-1.83284e-15
-1.54014e-16
-3.71501e-15
1.19922e-15
3.76024e-15
-3.52185e-16
-5.39134e-15
6.71832e-15
-2.70659e-15
-2.37082e-15
1.15727e-15
4.50783e-16
-9.44813e-16
-2.40486e-15
-5.20266e-15
9.56087e-16
6.60274e-15
-4.80444e-15
8.29396e-16
3.40281e-15
3.14154e-15
-2.63662e-17
-2.94323e-15
1.61414e-15
6.42794e-15
3.28409e-15
5.00227e-26
1.06467e-15
4.62414e-17
2.62043e-15
3.58879e-15
4.22735e-15
-3.90755e-15
-4.25702e-15
-1.12879e-15
3.47861e-15
-3.30153e-15
2.13149e-16
-2.29409e-15
1.26984e-15
-1.70597e-15
6.17457e-16
-8.66508e-16
-2.77441e-16
3.93902e-16
8.83614e-16
-3.79324e-15
-3.26658e-16
5.10792e-15
-2.27198e-15
1.04649e-15
-1.74191e-17
-9.50707e-16
-4.17532e-15
-2.7465e-15
-1.78388e-14
-1.27104e-14
-2.08699e-15
3.3751e-15
-6.14204e-15
2.58717e-15
-2.55037e-16
-9.83574e-16
-1.53125e-15
-4.06738e-15
3.82272e-15
4.13206e-15
1.81717e-15
1.55393e-15
-3.63733e-15
4.12399e-15
-5.60772e-15
3.28414e-16
-9.28066e-15
2.48824e-15
4.82772e-15
-5.26283e-16
-2.25049e-15
8.40108e-16
3.8913e-15
-4.14268e-15
-3.62244e-15
-1.76327e-15
1.7474e-15
-2.95073e-15
5.15725e-15
1.78291e-15
-1.63542e-15
-5.08019e-15
-1.51007e-15
2.55516e-16
-0
5.33594e-15
8.83971e-15
6.66549e-15
-2.46794e-15
-5.3087e-16
5.34913e-15
-4.06308e-15
2.64214e-15
-1.56251e-15
5.64502e-15
2.72976e-15
-1.45697e-16
1.67077e-15
5.78903e-16
-1.21628e-15
-2.43737e-15
1.39635e-15
-1.2906e-14
-2.1043e-15
1.66816e-15
-1.02135e-15
-1.53504e-15
-1.1982e-15
1.33817e-15
-4.7645e-15
-2.57363e-15
4.42279e-15
-1.75381e-15
-8.73172e-16
-2.89045e-15
2.25297e-15
-1.41795e-15
6.34497e-15
-2.45831e-15
-7.30175e-15
-9.887e-16
-1.26532e-15
1.07052e-15
5.03821e-16
-1.26549e-15
4.81436e-16
1.15754e-15
-8.17861e-16
3.97631e-16
-7.29635e-16
1.4495e-15
-9.12956e-16
-7.12505e-16
-7.8752e-16
-5.14096e-15
-1.39465e-15
1.03799e-15
-2.9039e-15
2.61039e-16
2.48861e-15
-1.69485e-15
-3.2645e-15
6.71923e-16
2.27238e-15
3.90381e-15
-4.9499e-15
2.50297e-15
-5.01054e-15
5.31033e-15
-4.27951e-15
-2.18028e-15
-1.59231e-15
8.09175e-16
-7.30893e-26
-1.67183e-25
-3.57576e-15
3.92108e-15
-3.11768e-15
-2.47948e-15
7.63899e-16
-2.46336e-15
-2.36956e-15
6.40722e-16
5.05234e-16
-4.61442e-16
7.17628e-16
5.53286e-15
-6.42545e-15
-4.21336e-15
5.89845e-17
-1.8641e-15
-9.03498e-15
-3.85948e-15
9.57113e-16
-2.96629e-16
5.89251e-16
4.53836e-15
4.64312e-15
5.20592e-16
2.07688e-16
6.78769e-16
1.16923e-15
1.36632e-15
-1.82717e-15
1.17017e-15
2.1079e-15
-5.798e-15
-1.25311e-15
1.63819e-15
-2.13661e-15
3.46446e-15
-3.65162e-15
4.86751e-16
8.58603e-16
1.72118e-16
-1.63666e-15
-8.80584e-16
1.25821e-15
1.69686e-15
-1.74306e-15
4.06462e-15
2.47592e-16
-1.752e-16
-2.92793e-16
1.26802e-15
6.20883e-16
6.64281e-16
5.01138e-15
2.22615e-15
9.62417e-16
3.44293e-15
1.30735e-15
-1.34288e-15
-1.17248e-15
-3.03661e-15
4.26768e-15
-4.66822e-16
-7.50609e-16
1.13978e-15
4.47683e-15
6.30509e-15
9.00747e-15
-9.03568e-16
-1.72991e-15
-8.38914e-16
3.35059e-15
-3.45753e-15
2.59107e-15
-4.21151e-16
-1.52024e-15
8.50791e-16
-2.9379e-15
-4.83682e-18
-1.55372e-15
-2.34698e-15
4.1575e-15
-2.81797e-16
3.34521e-15
-5.59309e-16
1.8995e-15
1.59912e-15
1.0121e-15
-2.28578e-16
8.11476e-16
-4.19064e-16
2.90907e-15
8.1792e-16
-8.45046e-16
1.41023e-15
-1.73157e-15
-1.48196e-16
-8.80271e-16
-9.858e-16
-3.25525e-15
-1.823e-16
-7.44831
-9.4429
-3.21034
2.78171
4.4114
2.92317
1.32818
-1.28128
-2.31428
0.497283
3.53128
4.43731
3.91473
3.2566
6.37764
8.82603
10.4107
12.1438
14.5008
10.7083
-2.54066
-8.49278
-5.25584
-7.04789
-11.1249
-12.386
-9.9765
-5.54525
0.778751
6.72749
10.4306
10.0951
6.62338
2.2603
0.0963959
2.8666
6.49247
6.8985
6.01065
0.932014
3.43546
3.34209
1.08047
-0.437402
-0.643167
-0.35945
-0.0892533
0.211159
0.47224
0.40415
0.0688972
-0.328439
-0.587653
-0.781992
-0.948467
-1.03611
-0.989186
-0.942355
-0.923788
-0.668341
0.0986939
0.984006
1.02079
0.63736
0.680326
0.605633
0.339682
0.08266
-0.123265
-0.279886
-0.354408
-0.323985
-0.243281
-0.0641902
0.286641
0.416834
-0.518068
-1.50088
-0.813206
1.63079
7.84478
8.86141
3.85588
-0.886968
-2.13444
-1.71036
-1.01188
-0.465795
0.840921
1.97996
2.06963
-0.165612
-2.78261
-5.18185
-6.78653
-7.5712
-7.23507
-6.80586
-7.36886
-5.83089
1.91092
10.9884
10.8441
2.82867
-0.0440841
0.260735
0.713152
0.063059
-2.13396
-4.87993
-6.53147
-5.55692
-2.24996
1.51452
4.47356
5.86524
3.42211
-1.71329
-2.95128
2.87781
2.56134
3.37267
1.7224
-0.590253
-1.36853
-1.30573
-1.0114
-0.914914
-0.462097
0.293904
0.913947
0.190771
-1.22187
-2.32322
-2.83069
-2.75365
-2.16901
-1.73879
-1.84778
-1.31728
1.53759
5.92429
6.16276
2.064
-0.561135
-0.841119
-0.212814
-0.147031
-0.978528
-2.02909
-2.57137
-2.03317
-0.385443
1.51482
2.70039
2.93441
2.1029
0.0159106
-1.62819
-0.26225
0.246579
0.564439
0.46786
0.000289022
-0.222305
-0.236248
-0.185383
-0.194888
-0.213385
-0.0396185
0.194606
0.164832
-0.15454
-0.430604
-0.532916
-0.526482
-0.411667
-0.389279
-0.534307
-0.612929
-0.0164551
1.28051
1.58741
0.865963
-0.0109822
-0.342272
-0.136456
0.0571821
-0.0561712
-0.286193
-0.432118
-0.429847
-0.197726
0.187661
0.500091
0.600474
0.483678
0.132253
-0.285569
-0.318702
0.00126347
-0.0410955
-0.0493092
-0.0156577
-0.00989728
-0.00567475
0.00301888
-0.00412003
-0.0373561
-0.0399456
-0.00280421
0.00894964
-0.00192819
-0.00559599
0.0043173
0.0121228
0.00939762
0.0153532
0.0252978
-0.121876
-0.131021
0.29926
0.287818
0.034229
-0.00483883
-0.0505218
-0.0585379
-0.0204493
-0.0171173
-0.0223451
-0.00519782
-0.010553
-0.00455105
0.0373386
0.0698103
0.0640064
0.0306724
0.0163004
-0.0131941
-0.124184
-0.0263097
-0.0256735
-0.111619
-0.0669442
-0.00805877
0.0172412
0.0213164
0.0109035
-0.000132611
-0.0110097
-0.00317852
-0.00168345
0.000827885
0.0141568
0.0183865
0.00975021
0.0142842
0.0161384
0.0407279
0.0426967
-0.0478479
0.1205
0.131752
-0.162255
-0.0823738
0.0346136
0.0215852
0.00346348
-0.00310306
0.00148815
0.00625633
0.000529782
-0.0033776
0.013005
0.0259045
0.0101152
-0.0273615
-0.0389506
-0.00495764
-0.0256744
-0.0186963
0.0117335
-0.0396506
-0.0472189
-0.0186751
-0.00122809
0.00625077
-0.00405327
-0.0073977
0.0013123
0.0124252
0.0237994
0.0134226
-0.00832952
-0.0286688
-0.02736
-0.00295248
0.00684381
-0.00481899
0.0282055
-0.0086296
0.0338107
0.0894772
-0.06067
-0.0652052
0.0276692
0.0329403
0.0138667
0.0063915
0.0038494
0.00421988
0.00210004
-0.000342681
0.00370903
0.0142759
0.0172401
-0.00397987
-0.0220671
-0.015615
-0.00067724
-0.00473146
0.00863512
0.0071345
-0.00639037
-0.00494988
-0.00463511
-0.00290481
-0.00616039
-0.00841093
-0.00223784
0.00546122
0.0144881
0.0136976
-0.0110237
-0.0303068
-0.0217671
-0.00409088
0.00502312
-0.00177599
0.00442699
-0.00409251
-0.00182375
0.0312887
-0.0104657
-0.0244604
0.014497
0.0193549
0.00735145
0.000832058
-0.00021651
0.000241404
0.00011089
3.37742e-05
0.000383725
0.000978034
0.00722999
0.00434
-0.00439073
-0.0065586
0.00114317
0.000844758
0.00357493
0.0144927
0.0113039
0.00624469
0.00240397
0.00179016
-0.000425738
-0.00439416
-0.00488811
-0.00235735
0.00268105
0.00339259
-0.00418116
-0.00871171
-0.00526787
-0.00080209
0.00204074
-0.000389397
0.00157605
-0.00122109
-0.00467926
0.00754166
-0.0035011
-0.00556229
0.0067346
0.00694754
0.00204762
-0.000240055
-3.0392e-05
-9.89435e-05
3.51637e-06
1.43066e-07
9.66349e-06
-0.000309947
0.000507936
0.001258
-0.000567609
-0.00095777
0.00207504
0.000995274
0.00107804
0.0078668
0.00789797
0.00413811
0.0028702
0.00197121
0.0008791
-0.000929776
-0.00190812
-0.0016158
-0.000811845
-2.251e-05
-0.000802247
-0.000859747
-0.000397917
0.000195456
0.000552134
-0.00030203
0.000465476
-0.0002725
-0.00204852
0.00120495
-0.00179738
-8.68395e-05
0.00279311
0.00150417
0.000408058
0.000104505
0.0001517
1.2013e-05
4.95328e-06
4.32895e-07
-8.38874e-07
-4.19227e-06
-1.03966e-05
0.000239634
-1.27685e-05
-5.84671e-05
0.00114932
0.00045819
7.56098e-05
0.00230227
0.00217939
0.000945653
0.000246564
0.000191763
0.000258334
5.35135e-05
-0.000274012
-0.000732074
-0.000687781
-0.000412788
-0.000129888
-0.000247015
-1.16106e-05
-3.60309e-06
-5.50622e-06
-1.79297e-05
2.49594e-05
-0.000405713
-0.00041548
-1.65186e-05
-0.000519192
0.000555
0.000693083
0.000233331
-1.55299e-05
9.61397e-05
2.34322e-06
2.38526e-08
-1.00044e-08
-3.92087e-09
-1.14681e-09
-4.02488e-06
2.99882e-06
8.84645e-06
1.42299e-07
9.03119e-06
0.000355885
0.000350251
-1.42843e-05
0.00036502
0.000456518
0.00010945
-1.3654e-05
-0.000153547
-1.95385e-06
5.03477e-06
1.5125e-06
-3.27002e-06
-7.47302e-06
-6.39658e-06
-2.85225e-06
-2.01222e-06
-1.50178e-06
-1.52876e-07
-4.99178e-08
-8.9343e-07
3.37777e-06
-3.68804e-06
-0.000221705
-0.000189502
-3.73668e-05
-6.60623e-05
2.97656e-05
-1.21946e-05
3.09441e-06
2.6197e-07
-5.43977e-09
1.08169e-10
-2.38924e-10
-1.09465e-10
3.36827e-09
-3.76844e-09
-3.53705e-07
3.08289e-08
-1.59707e-08
2.42416e-06
5.80245e-05
-1.90021e-06
-1.17804e-07
1.42439e-05
1.20654e-05
3.27753e-06
-9.37873e-07
-1.23727e-06
-3.4001e-07
-2.65226e-08
2.15507e-09
-4.88893e-11
-1.33367e-08
-2.62563e-08
-1.28686e-08
-1.11357e-08
-4.14045e-09
-1.10871e-10
2.12083e-09
2.14186e-08
-4.39736e-08
8.18889e-07
-1.5002e-06
-7.73024e-06
-2.25558e-06
-4.91072e-06
-2.02713e-06
1.00794e-06
1.35954e-07
4.36198e-09
-3.34951e-11
-1.42029e-11
7.15786e-12
3.85342e-12
-6.20032e-11
5.82299e-10
-4.38118e-10
-2.77709e-10
9.84676e-09
-8.40459e-08
-1.68686e-06
7.27845e-07
2.38215e-06
6.04837e-07
1.32242e-08
2.75203e-09
-6.5891e-10
-1.09376e-09
-1.30287e-10
3.76348e-11
-7.59699e-13
-9.1027e-14
-2.59789e-12
1.00844e-10
4.85967e-11
-6.02408e-11
-6.13255e-12
8.5069e-13
5.93081e-13
-1.87526e-10
2.52877e-10
-6.05561e-09
7.77154e-09
1.96972e-08
-6.54412e-08
-2.01387e-07
5.01306e-08
1.76378e-08
1.15526e-09
2.33755e-11
-1.5605e-13
9.36984e-14