/*--------------------------------*- C++ -*----------------------------------*\
| =========                 |                                                 |
| \\      /  F ield         | OpenFOAM: The Open Source CFD Toolbox           |
|  \\    /   O peration     | Version:  5.0                                   |
|   \\  /    A nd           | Web:      www.OpenFOAM.org                      |
|    \\/     M anipulation  |                                                 |
\*---------------------------------------------------------------------------*/
FoamFile
{
    version     2.0;
    format      ascii;
    class       volVectorField;
    location    "50.4676134421789371";
    object      GradTUP;
}
// * * * * * * * * * * * * * * * * * * * * * * * * * * * * * * * * * * * * * //

dimensions      [0 -1 -1 1 0 0 0];

internalField   nonuniform List<vector> 
60000
(
(-66.0442 -10.0033 -105.672)
(11.4723 -10.065 -78.1557)
(74.506 -5.43016 -38.2682)
(92.8286 0.94361 5.72889)
(60.41 3.9566 48.3238)
(8.90778 1.39384 74.8785)
(-27.07 -0.0673833 70.6391)
(-56.1787 -0.555299 32.2014)
(-101.503 0.0633609 -29.5776)
(-140.238 -1.6915 -84.1829)
(-142.574 -5.53389 -105.848)
(-104.266 -7.15482 -89.1191)
(-58.2234 -3.60824 -47.5623)
(-43.0796 0.419854 -3.37918)
(-57.9462 0.843975 36.8347)
(-76.1954 0.999406 78.3501)
(-89.1605 4.61218 113.225)
(-114.014 7.8304 133.162)
(-153.622 5.6634 150.884)
(-207.06 -0.892298 140.693)
(-277.165 -4.53192 69.7555)
(-360.271 -4.96327 -40.3479)
(-422.183 -2.59712 -125.927)
(-478.466 6.22669 -152.16)
(-564.504 17.8285 -128.422)
(-656.055 24.208 -89.8264)
(-697.544 19.4469 -68.6929)
(-639.351 7.74251 -73.7666)
(-470.369 -2.807 -77.3943)
(-277.91 -5.66779 -37.018)
(-203.402 -2.9033 43.6436)
(-239.871 -2.37403 111.478)
(-289.998 -5.17265 145.186)
(-289.202 -7.34862 165.864)
(-194.198 -7.56486 184.782)
(-37.4953 -2.23665 158.396)
(12.3186 2.14211 53.4444)
(-62.8076 0.272594 -54.7961)
(-122.427 -3.81564 -108.314)
(-118.896 -7.78669 -117.947)
(13.3554 1.61977 5.78487)
(10.6487 1.84852 2.58766)
(7.86965 0.879153 -1.3708)
(4.38332 -0.561279 -3.14253)
(-1.05446 -1.42561 -3.54958)
(-3.74905 -0.900851 -6.19203)
(-1.22616 -0.127202 -6.69367)
(2.04524 0.361576 -1.63787)
(5.80312 -0.171368 5.9898)
(10.9179 0.270366 10.8538)
(13.1512 0.891957 10.4288)
(11.6598 1.29935 7.5511)
(7.64348 0.93529 3.72572)
(3.55479 -0.0921799 -0.899425)
(3.9795 -1.00355 -5.28021)
(9.65511 -1.85317 -8.05866)
(13.5951 -2.38384 -8.03922)
(10.9776 -2.10449 -5.65964)
(5.39606 -0.466783 -3.22034)
(1.69674 1.13956 -0.954351)
(0.199686 1.73082 2.0671)
(1.23687 1.19235 5.5661)
(3.40305 0.259157 6.81707)
(4.69474 -0.641258 4.89389)
(5.31253 -1.16167 2.36266)
(5.60638 -1.26921 0.305164)
(5.23476 -0.842487 -0.844722)
(4.277 -0.273067 -1.01678)
(3.41694 0.0903668 -0.740881)
(2.69134 0.225849 -0.411208)
(1.43816 0.0989843 -0.153279)
(0.687491 -0.117877 -0.332474)
(1.98465 -0.100335 -0.921188)
(5.67348 0.182828 -1.3964)
(9.93324 0.659544 -1.59908)
(9.42054 0.71809 -1.94049)
(0.771257 -0.28433 -2.0805)
(-2.71532 -1.01332 0.173922)
(5.44535 -0.559201 4.47371)
(12.5912 0.604727 6.80408)
(8.9899 3.14139 7.83581)
(13.9848 5.39825 7.76281)
(14.3137 3.0151 1.62714)
(12.3837 -0.615415 -1.71674)
(0.39812 -2.58121 3.12422)
(-16.6877 -2.75149 3.42666)
(-23.3888 -1.41711 -6.0473)
(-20.8277 0.563068 -11.2894)
(-20.7635 -0.152747 -7.06341)
(-14.9864 -0.795714 5.11636)
(-4.17157 0.988083 13.3824)
(0.286456 4.05155 13.426)
(-5.89014 4.69516 9.01502)
(-17.4347 1.52206 2.28997)
(-20.089 -2.62704 -2.60307)
(-9.38945 -5.72701 -3.13159)
(-0.996911 -7.71555 -1.70003)
(-14.3443 -7.52067 0.880094)
(-41.2661 -2.29548 2.88502)
(-61.5775 7.78764 3.90623)
(-70.1378 15.6646 8.72842)
(-67.5462 13.4378 26.0224)
(-55.5037 3.16876 44.8447)
(-57.4043 -8.86517 38.0187)
(-76.172 -15.4008 15.7339)
(-99.9182 -15.1599 -7.00153)
(-115.157 -8.75565 -23.2137)
(-111.429 -0.317369 -31.4901)
(-90.7751 5.99705 -30.4477)
(-71.5543 7.70097 -18.3401)
(-71.8519 4.90819 -0.376049)
(-83.2563 0.246148 11.9632)
(-85.7105 -2.27452 14.1388)
(-72.9188 -1.07493 11.7209)
(-43.0812 1.95724 9.48581)
(-15.1488 4.09808 5.00799)
(-20.1258 1.47645 -6.65599)
(-41.8489 -3.93503 -16.6342)
(-35.1002 -5.66069 -13.6699)
(-7.77522 -2.41305 -1.31913)
(-6.58168 0.598972 3.10293)
(-3.58094 2.5569 6.92964)
(-4.75312 1.90009 5.08447)
(-4.976 0.136865 1.24149)
(-4.68287 -0.637647 0.6182)
(-7.41374 -0.781528 1.93179)
(-11.0606 -0.613255 -0.456168)
(-11.9289 -0.125169 -4.75904)
(-12.3626 0.116623 -6.22768)
(-12.6264 -0.643876 -2.6916)
(-8.78584 0.00586503 3.95926)
(-5.40683 1.86169 7.05983)
(-7.25185 2.78345 5.80637)
(-11.7045 1.48791 2.19735)
(-12.5804 -0.758775 -1.29241)
(-8.07519 -2.0949 -2.85912)
(-3.77372 -2.51881 -2.61422)
(-7.52973 -1.95316 -1.30242)
(-19.127 -0.611475 -0.562486)
(-29.4635 2.6945 -2.1791)
(-31.5019 6.71653 -2.29157)
(-28.6634 7.06805 3.13029)
(-21.6907 1.98671 13.9193)
(-20.6984 -4.91606 15.8763)
(-29.3812 -7.93386 8.17987)
(-41.099 -6.59554 -0.975601)
(-49.0033 -2.88536 -7.06403)
(-49.1558 1.40559 -10.0583)
(-41.2983 4.7862 -10.6576)
(-34.4747 5.57191 -8.22016)
(-34.8082 4.04138 -3.14498)
(-40.0305 1.81654 2.11259)
(-45.0309 -0.0814551 4.99202)
(-46.0677 -0.668539 4.2422)
(-38.3084 0.297575 0.524463)
(-23.9136 1.70045 -3.27217)
(-17.1908 1.33139 -4.98743)
(-20.3567 -0.735266 -6.50283)
(-22.6876 -2.33834 -7.00552)
(-15.7302 -1.90344 -3.50038)
(-1.06829 -0.255107 -0.432038)
(0.291689 0.355724 1.09715)
(0.370553 0.504591 1.6413)
(-0.138773 0.1743 0.873051)
(-0.239333 -0.0558799 0.244619)
(-0.394703 -0.0737426 0.266734)
(-0.935021 -0.0630705 0.213764)
(-1.56076 -0.0743151 -0.484044)
(-1.84255 -0.0212513 -1.12177)
(-2.16652 -0.119984 -1.11981)
(-1.7792 -0.0965434 0.0285783)
(-0.352267 0.311646 1.31202)
(0.465736 0.63645 1.59982)
(0.147525 0.514342 0.956463)
(-0.31288 0.0225004 0.0169971)
(-0.035606 -0.32186 -0.561795)
(0.659343 -0.44916 -0.703664)
(0.854116 -0.377162 -0.275248)
(-0.901893 -0.195954 0.387306)
(-3.54263 0.248892 -0.252327)
(-3.98935 0.917433 -0.677488)
(-3.55372 1.43981 -0.251068)
(-1.58979 0.636144 1.6401)
(-0.00292266 -0.951366 2.90076)
(-1.30993 -1.61032 1.81314)
(-2.74795 -1.21001 0.41295)
(-3.09161 -0.703401 -0.169293)
(-2.81486 -0.240476 -0.340584)
(-0.469351 0.562708 -0.531162)
(2.22421 1.22021 -0.636822)
(1.86815 1.11571 -0.272285)
(-0.495368 0.683381 0.402415)
(-3.23654 0.267093 1.04733)
(-5.50502 -0.0463021 1.3413)
(-6.46749 -0.128822 0.877424)
(-3.78368 0.160719 -0.577269)
(-0.750729 0.313919 -1.44648)
(-0.952412 0.0466922 -1.47815)
(-2.34906 -0.336735 -1.56724)
(-2.63758 -0.541134 -1.45229)
(-0.173548 -0.0636419 -0.170029)
(-0.0028121 -0.000853238 -0.0161431)
(0.0581028 0.0113411 0.0316452)
(0.0353986 -0.00941677 -0.00620952)
(-0.00326209 -0.0154105 -0.030211)
(-0.0212178 -0.00845025 -0.0293885)
(-0.00909748 0.000106837 -0.0234478)
(-0.0489157 -0.00140121 -0.0012452)
(-0.126143 -0.0203775 -0.070744)
(-0.236886 -0.0341237 -0.143173)
(-0.403966 -0.0285063 -0.144243)
(-0.192889 0.0264892 0.0390006)
(-0.0159145 -0.0238936 -0.070036)
(-0.127291 -0.167811 -0.229769)
(-0.210224 -0.0955628 -0.0613971)
(-0.34656 0.0778823 0.173803)
(-0.201066 0.0618737 0.0651062)
(0.400459 -0.0962301 -0.0490927)
(0.662755 -0.094662 0.528604)
(-0.433551 0.0218323 0.384045)
(-0.410514 0.100418 0.0642457)
(0.513659 -0.0632124 0.558315)
(0.374724 -0.0912345 0.31477)
(0.0579412 -0.0373796 0.00576002)
(0.140022 0.134741 -0.0139376)
(0.245454 0.128244 0.0314389)
(0.144318 0.0744408 -0.0253061)
(-0.00308131 -0.00684911 -0.00469244)
(0.284411 -0.0476262 0.117108)
(1.59164 0.104826 0.120867)
(1.87141 0.182896 0.0952418)
(0.747666 0.0767794 0.0645525)
(0.0649659 0.0077511 0.0149548)
(-0.0189428 0.00147562 0.00657368)
(-0.320021 9.43874e-05 0.15356)
(-0.626507 -0.0234977 0.174487)
(0.0168623 0.00799646 -0.0705841)
(0.13436 0.00289531 -0.0626777)
(0.0145425 -0.00414198 -0.0583464)
(-0.154813 -0.0478792 -0.179298)
(0.0210705 0.0107561 0.0334107)
(0.0285691 0.0218065 0.0493359)
(0.012419 0.00497551 0.0118477)
(-0.0413773 -0.0208878 -0.0641696)
(-0.105012 -0.0200756 -0.0734004)
(-0.180327 -0.0146175 -0.0620051)
(-0.181976 -0.00981487 -0.0730066)
(-0.0863845 0.0016217 -0.0428626)
(0.00834356 -0.00785897 0.000687388)
(0.0434449 -0.020841 0.0215899)
(-0.034083 -0.0100536 -0.0116549)
(-0.0862425 0.00682303 -0.0228094)
(0.0707322 -0.0269489 -0.0425759)
(-0.097625 -0.161836 -0.11917)
(-0.465636 -0.124407 0.0219473)
(-0.611451 0.0707675 0.223102)
(-0.365429 0.132987 0.140815)
(0.00145944 0.00476741 -0.0340749)
(0.526762 -0.0581341 0.329825)
(0.449422 0.042432 0.660516)
(-0.358151 0.0809105 0.121953)
(0.653351 -0.144524 0.485346)
(0.985402 -0.252085 0.493304)
(0.6512 0.0445537 0.133559)
(0.584412 0.25938 0.184158)
(0.160747 0.108185 0.0454043)
(0.00511545 0.0197963 -0.0198903)
(-0.0161078 0.0217023 -0.0530791)
(-0.00698819 0.00440421 -0.00930815)
(0.169633 -0.0399796 0.0351003)
(0.666508 -0.0213152 0.076266)
(0.35916 0.00760067 0.0464361)
(-0.427117 -0.0588882 -0.0714173)
(-0.504739 -0.104602 -0.15191)
(-0.0504676 -0.0521576 -0.131146)
(0.0198775 -0.00841691 -0.005585)
(0.00860588 -0.012586 0.0214116)
(0.0414752 -0.0166932 0.0296503)
(-0.0617715 -0.0186391 0.096244)
(0.0119156 0.00877145 0.0894025)
(0.0126047 0.00728124 0.0377643)
(0.0257928 0.0134244 0.0310747)
(0.0415131 0.0154952 0.0277704)
(0.0289432 0.00268599 -0.00287322)
(-0.0071281 -0.00192956 -0.01628)
(-0.0584635 -0.00480992 -0.0182694)
(-0.126671 -0.00704309 -0.0284525)
(-0.116938 -0.00461965 -0.0341259)
(-0.0403522 -0.00634712 -0.0154776)
(0.014861 -0.012521 0.0033654)
(0.0135307 -0.00737884 0.00584404)
(-0.0361459 0.00351559 -0.0145605)
(0.0301745 -0.000526362 -0.0136847)
(0.027708 -0.0397778 0.00616777)
(-0.168886 -0.035129 0.0511833)
(-0.236679 0.0300454 0.0514789)
(-0.116731 0.0746198 -0.0199137)
(-0.0120466 0.0503529 -0.0467328)
(0.160442 -0.0444655 0.0795038)
(0.775523 0.060414 0.46265)
(0.144423 0.109813 0.283938)
(0.157663 -0.0801066 0.201096)
(1.00191 -0.188735 0.475113)
(0.931899 0.050235 0.427082)
(0.328191 0.134874 0.207123)
(0.0168586 0.0348285 0.0114058)
(-0.00202311 -0.00230184 0.000557768)
(0.00170956 -0.00120312 0.00296959)
(-0.00724691 0.00284732 -0.00969393)
(-0.00397281 0.00308778 -0.00173852)
(0.0556136 -0.0295687 0.01922)
(0.178272 -0.0263138 0.0483746)
(0.0283881 -0.00203873 0.00827676)
(-0.273824 -0.0322822 -0.0577699)
(-0.254872 -0.0501914 -0.0700053)
(-0.0420431 -0.0212073 -0.0369621)
(0.0182462 -0.00826353 0.0012224)
(0.0457342 -0.00812871 0.00207727)
(0.00710315 -0.013616 0.0190699)
(-0.0159665 -0.00711104 0.0447276)
(-0.00131302 -0.000411458 0.0125348)
(0.00731679 0.00398453 0.0125033)
(0.0142273 0.00644224 0.00958333)
(0.0130462 0.00351464 0.000822121)
(0.00390294 0.000885626 -0.00172327)
(0.00270801 -0.000879665 -0.000987457)
(-0.0110559 -0.000657492 -6.74719e-05)
(-0.0324922 -0.00125567 -0.00447535)
(-0.0237663 -0.00305672 -0.00722955)
(-0.00042374 -0.00544069 -0.00480634)
(0.00403979 -0.00357793 -0.00124306)
(-0.0180342 0.001652 -0.00608199)
(0.00753856 0.00149121 -0.0120863)
(0.0291209 -0.00761041 0.00725625)
(-0.0277248 -0.00339504 0.0200937)
(-0.0281897 0.00909689 -0.00635614)
(0.00355729 0.0201351 -0.0343472)
(0.0385573 0.0410542 -0.0504005)
(0.0126305 -0.0116635 -0.0037805)
(0.425839 0.0203003 0.10716)
(0.600448 0.117569 0.210662)
(0.0261943 -0.0382035 0.0577605)
(0.574974 -0.0922919 0.331848)
(0.574464 0.0517958 0.358395)
(0.118662 0.0487436 0.0907258)
(-0.00305884 0.00452897 -0.00428174)
(-0.00463791 -0.00167475 -0.00750436)
(0.000806908 0.000272127 0.00162186)
(0.000804532 -1.2947e-06 0.000739523)
(-0.00111107 0.00162674 -0.000779966)
(-0.00151286 0.00121157 -0.000902383)
(0.0116371 -0.00882495 0.0120612)
(0.0342856 -0.0088898 0.0209919)
(0.00725763 -2.68497e-05 0.00328922)
(-0.0600544 -0.00634358 -0.0138601)
(-0.0547353 -0.0103581 -0.0123119)
(-0.00904477 -0.00627027 -0.00355398)
(0.00891019 -0.0042941 0.00124218)
(0.0118171 -0.0041473 0.000693622)
(-0.000173973 -0.00479198 0.00662681)
(-0.0010591 -0.000887924 0.00171756)
(-0.000902096 0.000393473 0.00293794)
(0.000363176 0.00162509 0.00216584)
(0.00139668 0.00126487 -0.000311336)
(0.000474121 0.000228302 -0.000473378)
(0.000932522 -0.000354947 4.95218e-05)
(0.00140747 -0.000378429 3.91012e-06)
(-0.000266492 -1.08222e-05 0.000814485)
(-0.00366259 -0.000460183 -6.94328e-05)
(0.000399439 -0.0013965 -0.00172619)
(0.00787602 -0.000694844 -0.00180271)
(-0.00236597 0.0017255 -0.00164637)
(-0.000314258 7.87255e-05 -0.0056574)
(0.0204099 -0.000524598 0.00229677)
(0.00628813 0.00213639 0.00433953)
(0.00163775 0.00262677 -0.00302978)
(0.00028729 0.000158132 -0.000375132)
(0.0147719 0.0116936 -0.0185992)
(0.0144987 0.00556482 -0.00238759)
(0.0764222 -0.0140241 -0.0121076)
(0.410189 0.0531113 0.0257867)
(0.0361207 -0.0125357 0.00220681)
(0.132335 -0.0469676 0.16779)
(0.215676 0.0264114 0.178049)
(0.0414139 0.0116343 0.0277437)
(-0.00103382 -0.00213049 -0.00470242)
(-0.000566779 -0.00107 -0.0009038)
(0.000132341 -0.000494421 -0.000603032)
(-0.000182962 9.14745e-05 5.31057e-05)
(0.000118502 -0.000202716 4.17512e-05)
(-0.000297726 0.00051868 -0.000583401)
(-0.000470183 0.000415641 -0.00070535)
(0.00142747 -0.00113206 0.00281834)
(0.00431087 -0.00150591 0.00514659)
(0.00143728 -2.25408e-05 0.000848173)
(-0.00692851 -0.000702544 -0.00170196)
(-0.00677236 -0.00167199 -0.00112877)
(-0.00113541 -0.00145897 0.000218518)
(0.000638957 -0.00105548 0.000267153)
(0.000221438 -0.00145147 0.000260252)
(-0.000789194 -0.000456064 0.000115036)
(-0.000923079 -0.000185444 0.000580689)
(-0.000609481 0.000247574 0.000321749)
(-0.000127136 0.000286543 -7.91111e-05)
(0.000396876 0.00023438 -0.000469306)
(0.000128379 -2.10212e-05 -1.61124e-05)
(0.000243621 -6.56205e-05 3.58744e-06)
(1.29254e-05 7.43209e-07 1.07079e-06)
(0.000292854 0.000161426 0.000433711)
(-0.000532272 -0.000446286 -0.000135722)
(0.00317375 -0.000148873 -0.000622381)
(0.00470648 0.000756764 -0.000120901)
(-6.31139e-05 -6.02047e-05 -0.000592006)
(0.00714391 -6.32369e-05 -0.00152306)
(0.00964944 0.00128314 -0.000817997)
(0.00235471 0.000751913 -0.000712338)
(-0.00159661 -0.000519018 0.00149032)
(0.000319304 0.00111511 -0.00191565)
(0.00309875 0.00488087 -0.00357869)
(0.00169509 -0.00858974 -0.00578975)
(0.0993116 -0.00426408 -0.0400383)
(0.0316043 -0.00281388 -0.0112065)
(-0.0323717 -0.0250742 0.0584585)
(0.0277206 -0.000126895 0.0537067)
(0.0054049 -0.00121465 0.00456118)
(0.000486971 -0.00160994 -0.00167041)
(0.000433856 -0.00061503 -0.000526675)
(-1.63471e-06 -7.37549e-05 6.14746e-05)
(0.000336397 9.67654e-06 5.35029e-05)
(-5.15366e-06 -3.15405e-06 -1.35223e-06)
(-2.61051e-06 -1.54362e-05 7.37329e-06)
(-7.75933e-06 1.17646e-05 -1.9365e-05)
(-0.000323487 0.000228247 -0.000750391)
(9.1958e-06 -4.10048e-06 2.10239e-05)
(0.000212106 -0.000126256 0.000732722)
(3.38496e-05 -5.11564e-06 4.73847e-05)
(-0.000570262 1.71141e-05 -9.6937e-05)
(-0.000556562 -0.000117927 -4.8842e-05)
(-0.000554973 -0.000276636 8.35784e-05)
(-0.000379506 -0.000362131 -8.40287e-06)
(-6.47301e-06 -7.2613e-06 4.67527e-07)
(-0.000599519 2.44048e-05 -4.78616e-05)
(-0.000556344 -6.1427e-06 1.05124e-05)
(-6.01828e-06 -2.09085e-06 7.88074e-06)
(2.64347e-05 -6.10111e-06 1.98635e-06)
(8.97483e-06 -1.91383e-06 4.75078e-07)
(-1.2767e-05 -1.92291e-06 4.67016e-06)
(-2.01867e-05 -1.06547e-06 4.31944e-06)
(2.5507e-05 1.11565e-06 1.92928e-06)
(9.60273e-07 -1.83405e-06 1.79524e-05)
(0.000325929 -0.000139902 -0.000202037)
(0.00133893 0.000111159 -1.08109e-05)
(0.000505276 4.48798e-05 0.000168698)
(0.00148987 -0.000187465 -0.000801273)
(0.00523174 4.44558e-05 -0.00118895)
(0.00185555 -2.84976e-05 -0.000252872)
(-0.000409482 9.25705e-05 0.000287865)
(-0.00011201 0.000173736 0.00100794)
(-0.000913469 0.00178981 -0.00224031)
(9.90198e-05 -0.000638503 0.000524574)
(0.00701546 -0.00995194 -0.0229644)
(0.0102868 -0.00167908 -0.00874696)
(-0.0262887 -0.00798449 0.013563)
(-0.0147565 -0.00513789 0.00788812)
(-0.00116653 -0.00171383 -0.000158876)
(0.000312603 -0.00061135 -0.000465507)
(0.000898241 -0.000380839 5.07506e-05)
(2.88741e-05 -5.65202e-06 6.07455e-06)
(-1.74607e-06 -2.7277e-07 -6.56417e-07)
(9.34281e-07 5.52733e-07 5.79525e-07)
(-1.30842e-06 -1.04352e-06 -6.27809e-07)
(-4.26867e-07 -6.25838e-07 8.61842e-08)
(2.72972e-07 -2.97469e-07 5.96968e-07)
(-2.31247e-06 5.60192e-07 -3.95614e-06)
(4.55676e-07 -1.84271e-08 8.70751e-07)
(-8.27409e-08 -1.91873e-07 4.46611e-07)
(2.20095e-07 -1.86004e-07 4.62292e-07)
(-6.00363e-06 2.08429e-06 -1.7926e-06)
(-5.07682e-06 1.38899e-07 5.68036e-07)
(6.5631e-06 1.48304e-06 6.32026e-06)
(-1.73999e-06 -3.72534e-07 -1.90477e-06)
(-1.46004e-05 -2.40068e-06 -1.89151e-06)
(-1.85642e-05 -3.77599e-06 2.75588e-06)
(5.47939e-08 -1.19084e-06 1.21134e-06)
(3.3912e-07 -1.09566e-07 1.2834e-07)
(4.63243e-08 -9.6903e-09 8.31221e-09)
(3.24228e-08 3.89016e-09 -1.25103e-08)
(-3.29241e-07 -6.17988e-08 2.89551e-07)
(-1.11406e-06 4.21624e-10 6.55562e-07)
(2.0111e-06 1.1695e-06 2.50165e-06)
(-8.74537e-06 -1.81008e-06 8.47278e-06)
(0.00104519 0.000118369 -0.000243637)
(7.7835e-05 1.75803e-05 2.56325e-05)
(0.000461185 -0.000152687 -0.000557884)
(0.00131998 -0.000146336 -0.000401111)
(0.00111201 -0.000189984 -0.000331133)
(3.88324e-05 -9.79856e-06 -4.29476e-05)
(-1.84961e-06 -2.72358e-06 9.41911e-05)
(-0.000481418 0.000367856 -0.000420566)
(-0.000316811 0.000330073 0.000448742)
(0.000399513 -0.00308132 -0.00504045)
(0.00129432 -0.00170253 -0.00414313)
(-0.00505269 -0.000594202 0.00258566)
(-0.00498621 -0.00205209 0.000367695)
(-4.01436e-05 -0.000997832 -0.000464532)
(0.000853792 -0.000541528 8.51757e-05)
(2.10485e-05 -8.79078e-06 7.2905e-06)
(2.22035e-07 -6.11602e-08 2.06584e-07)
(8.53736e-09 6.11519e-09 1.00186e-08)
(-3.93448e-09 -2.62096e-09 -3.71311e-09)
(8.38394e-09 3.66597e-09 6.63249e-09)
(5.65605e-09 2.22075e-09 4.08476e-09)
(1.74184e-09 1.32707e-09 8.33373e-10)
(7.45479e-09 -1.65562e-09 9.42959e-09)
(-1.4844e-09 -1.49523e-10 -1.69103e-09)
(-5.87009e-09 5.44315e-10 -9.61451e-09)
(1.71539e-08 -2.63549e-09 2.16811e-08)
(-1.7676e-07 1.449e-07 -1.15483e-07)
(1.96189e-08 3.89651e-08 -7.2957e-09)
(-2.5494e-07 3.85126e-08 -2.12281e-07)
(-3.51894e-09 2.25067e-09 -4.86222e-09)
(-3.08202e-08 -7.91302e-09 -2.39098e-08)
(-5.26246e-08 -6.80866e-08 3.6994e-08)
(1.40509e-08 -2.45547e-08 2.1944e-08)
(2.72304e-09 -1.78833e-09 1.82907e-09)
(1.46383e-10 -5.05424e-11 5.41447e-11)
(-1.13989e-11 2.0029e-12 -5.60873e-12)
(-7.07458e-11 -1.1451e-10 5.33598e-10)
(8.58033e-09 6.70216e-09 -2.3593e-08)
(-9.61572e-08 -1.54125e-07 1.20923e-07)
(-1.51297e-06 2.64858e-06 7.00388e-06)
(1.32105e-05 1.80237e-06 -1.58937e-05)
(1.64364e-05 8.23465e-06 -5.62934e-06)
(5.12219e-06 -1.66282e-05 -1.5197e-05)
(2.90732e-05 -9.63979e-06 -1.80499e-05)
(7.04634e-06 -1.68734e-06 -5.10462e-06)
(-5.57327e-06 1.18569e-06 9.43336e-06)
(3.24401e-06 -2.13504e-06 6.36957e-06)
(4.50049e-06 -2.34601e-06 1.974e-06)
(-0.000391362 0.000218982 1.7397e-05)
(0.000151908 -0.000342892 -0.000479856)
(-0.000106181 -0.000527211 -0.000968188)
(-2.28194e-05 0.000166802 0.000571421)
(4.3477e-05 -0.000266047 0.00011681)
(0.000391509 -0.000581088 5.2768e-05)
(1.25619e-05 -1.46887e-05 3.66462e-06)
(9.3239e-08 -8.12799e-08 8.73093e-08)
(-1.89968e-09 5.4119e-09 -1.09823e-09)
(4.35399e-11 2.18152e-10 -4.04861e-11)
(2.88651e-11 1.52387e-11 1.92917e-11)
(-2.37023e-11 -4.51882e-12 -2.15779e-11)
(-2.09818e-11 -2.59602e-12 -2.09395e-11)
(-1.72504e-11 -2.44352e-12 -1.75909e-11)
(1.27379e-12 2.85321e-12 5.79789e-12)
(1.19132e-14 6.99973e-13 4.84116e-13)
(2.41762e-11 -3.09199e-15 3.52504e-11)
(4.66296e-11 -1.81664e-12 7.9031e-11)
(-3.6115e-10 1.96537e-10 -5.43388e-10)
(-1.0403e-10 3.295e-10 -9.04848e-11)
(-1.71879e-09 -9.42367e-10 5.33138e-10)
(-1.71282e-11 -2.25435e-12 9.74973e-12)
(7.36358e-11 -4.78688e-11 -1.709e-10)
(6.82417e-10 -7.56979e-10 -1.70494e-10)
(2.22049e-10 -2.48806e-10 6.35224e-11)
(1.30517e-11 -1.38238e-11 1.02659e-11)
(-4.61439e-14 -1.98169e-13 5.81578e-13)
(1.80368e-13 5.91814e-14 -6.33191e-14)
(-3.36965e-12 -5.73902e-13 -1.09107e-12)
(4.448e-12 -4.62414e-12 6.86096e-11)
(4.80998e-10 2.72207e-10 -7.03006e-10)
(-2.70493e-09 -2.22349e-09 -6.95942e-10)
(-2.16382e-08 -4.88151e-08 -2.16998e-07)
(-8.85997e-07 -6.13789e-07 1.55073e-06)
(-4.78493e-07 -1.30516e-06 -6.95727e-08)
(1.14537e-07 -1.26618e-07 -2.29649e-07)
(2.13914e-08 -4.467e-09 -4.32879e-08)
(-3.2985e-10 -4.79938e-09 5.65925e-09)
(5.61131e-08 -7.68313e-08 -8.33728e-08)
(1.14571e-07 -8.98388e-08 -2.53758e-07)
(1.33114e-07 2.11567e-07 5.1158e-07)
(-2.01841e-06 -3.7344e-07 -2.11489e-06)
(1.04273e-06 -7.52886e-07 -9.32602e-07)
(1.73647e-06 1.78247e-06 7.02326e-06)
(4.84283e-06 -3.28706e-06 5.0652e-06)
(3.87507e-08 -1.16341e-06 2.71983e-07)
(-3.72602e-08 -1.41755e-08 -7.97947e-09)
(-1.36626e-10 1.84709e-11 -6.86471e-11)
(-1.33387e-11 -2.73651e-11 2.32989e-11)
(-3.45659e-12 -1.37223e-12 9.5958e-13)
(-2.9066e-13 -4.01845e-14 -4.79015e-14)
(1.96453e-14 7.64621e-17 1.30768e-14)
(5.85037e-14 -7.72607e-15 6.57003e-14)
(4.44867e-14 -2.52431e-15 5.40927e-14)
(-2.71958e-14 2.20703e-15 -9.46874e-14)
(1.48508e-14 -2.00736e-15 -3.46547e-15)
(-1.12893e-13 -1.68959e-14 -1.09636e-13)
(4.33254e-14 7.03226e-15 5.57269e-14)
(-3.77261e-13 7.65207e-14 -8.7886e-13)
(-2.36203e-12 1.48627e-12 -2.19253e-12)
(1.34559e-12 -7.21689e-12 1.33362e-12)
(-6.9106e-15 -6.25138e-14 2.57264e-14)
(-9.31208e-14 -1.89231e-13 -1.59728e-13)
(3.35462e-12 -4.38234e-12 -2.87034e-12)
(1.24434e-12 -1.14934e-12 -5.7697e-13)
(8.32368e-14 -3.89753e-14 4.56202e-15)
(1.03126e-15 3.93778e-16 4.20063e-15)
(-1.33661e-15 -9.76775e-16 -1.24736e-15)
(1.32805e-14 8.04017e-15 -1.35456e-14)
(-8.2617e-14 -6.8218e-14 5.8686e-15)
(-4.82336e-13 3.83432e-13 9.58106e-13)
(9.22858e-12 1.97076e-12 -3.97534e-12)
(-1.60978e-10 -8.18446e-11 -7.14571e-11)
(2.17488e-10 5.94329e-10 3.37464e-09)
(-6.5259e-09 -3.36641e-09 1.73663e-09)
(-1.18406e-09 -4.19428e-10 -1.33532e-09)
(-1.26375e-10 8.80755e-11 -1.32382e-10)
(3.89737e-12 -1.07308e-11 -1.3582e-11)
(-2.96983e-11 -3.1007e-11 -2.25046e-10)
(8.37789e-10 -5.88885e-10 8.00482e-10)
(2.69077e-09 -2.50921e-09 -2.64436e-09)
(1.16104e-09 5.92986e-09 1.84237e-08)
(-2.78788e-09 -1.24169e-10 -1.93609e-09)
(-2.08384e-08 5.21623e-10 8.07033e-11)
(-5.61797e-08 -1.2419e-09 7.85088e-09)
(-1.19839e-08 2.978e-10 3.91612e-10)
(-3.75981e-10 8.32623e-11 -3.28851e-11)
(2.94117e-12 3.9465e-12 -1.24732e-12)
(9.16627e-13 1.12965e-13 -4.59291e-14)
(6.58097e-14 -2.37425e-15 2.7321e-15)
(4.90783e-14 3.99289e-16 -3.01006e-15)
(1.28121e-14 -6.97854e-16 2.55592e-15)
(-7.24381e-16 2.56095e-15 -5.53877e-16)
(1.2024e-14 -4.42684e-15 1.78186e-14)
(9.56174e-15 -1.85551e-15 1.53531e-14)
(7.32088e-15 1.64386e-16 3.52002e-17)
(1.1406e-14 1.3142e-15 1.89551e-15)
(-2.90664e-14 -8.32974e-15 -2.95269e-14)
(5.25605e-15 1.24442e-15 1.30097e-15)
(-4.87599e-15 2.12546e-15 -6.84436e-15)
(2.46393e-14 -9.65983e-15 2.06708e-14)
(8.21581e-16 -2.47905e-15 9.87561e-16)
(-7.18888e-16 -4.56833e-15 2.10455e-15)
(5.14985e-15 1.14937e-15 -4.94586e-15)
(-7.35845e-15 -1.0041e-14 8.10864e-15)
(5.36261e-15 1.16375e-16 -4.6641e-16)
(9.11739e-15 -4.13565e-16 6.475e-15)
(2.4592e-15 3.57353e-15 -6.5113e-15)
(8.49993e-16 5.15127e-16 -9.66166e-16)
(9.53005e-16 -3.74598e-16 2.27594e-15)
(1.61147e-15 3.82938e-16 1.52254e-15)
(-1.48929e-14 1.01557e-14 1.52785e-14)
(-1.71879e-13 -4.63935e-14 4.25417e-14)
(2.77526e-12 4.41524e-12 1.92725e-12)
(-3.17568e-11 3.61294e-11 1.61234e-11)
(-1.79005e-11 8.44635e-12 2.75976e-12)
(-2.1185e-12 8.80403e-13 1.27059e-12)
(-7.76683e-15 2.06696e-15 4.06214e-15)
(-4.36347e-14 1.77817e-13 -9.99747e-14)
(-5.28213e-13 1.36829e-12 2.86138e-13)
(-8.18186e-12 9.45789e-12 9.91484e-12)
(1.86609e-11 -6.61062e-12 -4.03216e-11)
(2.00626e-13 -6.3828e-14 3.52657e-13)
(-3.90579e-11 5.75247e-12 -1.01336e-11)
(-2.882e-10 3.1811e-11 -3.60365e-12)
(-6.1411e-11 6.52437e-12 4.99024e-12)
(-1.63699e-12 1.12298e-13 5.23327e-13)
(7.77011e-14 -2.12158e-14 2.4582e-14)
(1.95124e-14 -8.2332e-16 -1.64896e-15)
(9.847e-15 3.13343e-15 -1.40288e-15)
(-1.61089e-14 -4.82121e-15 4.17242e-15)
(9.678e-15 2.53133e-15 -2.79096e-15)
(-3.95868e-15 -8.5927e-16 -3.38222e-16)
(6.49313e-15 5.93781e-15 1.58625e-15)
(-2.36051e-14 5.17062e-15 -1.99768e-14)
(2.01241e-14 2.66448e-16 1.69752e-14)
(7.56358e-15 1.69551e-15 -1.18523e-14)
(1.33884e-15 6.28262e-16 1.67446e-15)
(-1.32396e-14 -6.55846e-15 -1.50777e-14)
(-9.19823e-15 -5.75061e-15 -2.28289e-15)
(2.05951e-15 -1.12084e-15 4.13253e-15)
(-2.3465e-15 -2.11156e-15 -9.31864e-16)
(2.31205e-16 -2.29974e-16 -4.44918e-15)
(1.71362e-15 5.24455e-16 -1.07537e-15)
(1.38337e-14 -5.46724e-15 -1.66877e-15)
(7.56926e-15 -5.87036e-15 5.14959e-16)
(5.1892e-15 6.39687e-16 -3.3411e-15)
(7.3353e-15 -2.32044e-16 -2.57911e-15)
(-4.79109e-15 -5.02031e-15 6.88814e-15)
(-4.06497e-15 5.85108e-16 -1.49032e-15)
(-4.4613e-15 -6.97491e-16 -1.51724e-15)
(2.42085e-15 3.49345e-15 3.00092e-15)
(-8.74894e-16 2.38518e-15 3.34669e-16)
(1.32184e-14 -6.44847e-15 -1.1821e-14)
(-1.21596e-13 3.33821e-13 1.94114e-13)
(-1.26075e-13 1.01719e-13 1.27603e-13)
(-9.85058e-15 -2.98265e-15 1.26171e-14)
(6.87357e-16 1.87926e-16 -5.93395e-15)
(-3.93106e-16 -3.64384e-15 -1.94945e-15)
(-4.69262e-15 6.72342e-15 8.43416e-16)
(6.50813e-15 -8.72428e-15 -3.75595e-14)
(-2.45312e-14 -1.59024e-14 8.15037e-14)
(2.1965e-15 1.62101e-15 -6.46402e-15)
(-1.3267e-14 2.12706e-14 -3.01575e-14)
(-1.50237e-13 1.46537e-13 1.17294e-14)
(5.83049e-14 -3.01798e-15 8.45427e-14)
(3.28887e-15 -2.01564e-15 3.96934e-15)
(-1.41378e-14 1.80049e-16 -1.97299e-15)
(-8.40447e-16 -1.12001e-15 7.2126e-16)
(-6.28414e-15 2.36739e-15 -3.35083e-15)
(-2.82425e-15 -1.90952e-15 -2.10233e-16)
(-6.43949e-15 -2.38284e-16 1.92579e-15)
(2.99935e-15 -3.07056e-15 -1.73434e-15)
(-8.74156e-15 1.30984e-15 -4.75696e-15)
(2.35671e-15 -4.02876e-15 3.97832e-15)
(2.84335e-14 -9.03598e-16 2.08108e-14)
(-1.84161e-14 -3.59673e-15 -6.47373e-15)
(-1.31077e-15 -8.75324e-16 -2.60934e-15)
(1.28095e-15 -3.98655e-16 1.12662e-15)
(-9.69999e-15 -3.68869e-15 -6.26976e-15)
(-4.50081e-15 2.79699e-15 -7.18903e-15)
(-1.4203e-14 -4.97967e-15 -1.47609e-14)
(-1.22482e-14 -1.19342e-15 -8.07795e-15)
(1.68864e-14 -3.91553e-15 1.31689e-14)
(-5.46394e-15 4.50834e-15 -3.48882e-15)
(6.42081e-15 -2.13285e-15 1.77272e-15)
(1.37108e-14 -7.12428e-15 -2.41352e-15)
(-4.89652e-15 7.3751e-15 6.93587e-15)
(-5.02736e-16 -3.36524e-15 -7.92728e-15)
(-4.8387e-15 4.78357e-15 -5.68785e-15)
(-1.40153e-16 8.63079e-16 -2.31643e-15)
(9.06482e-16 -5.19788e-15 -2.41548e-15)
(-1.84063e-15 7.87245e-16 3.68982e-15)
(-2.26472e-15 6.36701e-15 -3.75474e-15)
(-4.08777e-15 4.72408e-15 1.92952e-15)
(-6.85645e-15 2.817e-15 1.05278e-14)
(3.34572e-15 2.37487e-15 5.86164e-15)
(-3.17537e-15 -2.54723e-17 -7.29974e-15)
(2.9675e-15 4.18062e-15 3.58088e-15)
(-2.69249e-15 5.87893e-16 2.64582e-15)
(3.18943e-15 8.92338e-16 -4.02308e-15)
(-8.28274e-16 -1.29053e-15 1.64876e-15)
(-1.79351e-15 3.84642e-15 -7.06566e-15)
(1.17305e-14 2.57603e-15 -1.01326e-14)
(9.2556e-15 1.40209e-15 -2.97477e-15)
(3.4246e-14 -7.66491e-15 1.06267e-14)
(-7.46471e-15 2.28687e-15 -3.69157e-15)
(3.51047e-15 -2.92852e-16 -4.81308e-16)
(1.50607e-15 -4.92572e-16 4.22391e-16)
(2.25281e-14 -3.81257e-15 4.65864e-15)
(1.13747e-14 -1.13476e-15 9.48211e-16)
(-7.34423e-16 3.20799e-16 -2.31634e-15)
(1.14433e-14 -1.5511e-15 -5.30113e-15)
(3.24512e-15 -4.01513e-15 -2.82839e-15)
(-1.03179e-14 3.11204e-15 -1.14691e-14)
(-5.77428e-15 1.36636e-16 -2.6175e-15)
(-7.05997e-15 9.28882e-16 -4.47488e-15)
(-1.6675e-14 -3.69687e-15 -1.05432e-14)
(3.24919e-15 2.0424e-16 -2.1073e-15)
(1.40369e-15 9.28559e-16 3.11909e-15)
(3.88256e-15 9.16746e-16 2.31057e-15)
(-3.90448e-15 3.23448e-16 5.16012e-16)
(-1.75433e-14 5.37508e-16 -8.73636e-16)
(-7.17722e-15 1.62262e-15 -9.64359e-16)
(-9.45515e-15 2.7576e-15 6.04916e-16)
(-6.21621e-15 2.08249e-15 -9.7468e-16)
(-8.10227e-15 7.7764e-16 4.35973e-15)
(3.10345e-15 5.93946e-15 -1.87812e-15)
(-3.15367e-15 6.74351e-15 2.28685e-16)
(8.13898e-15 -5.48951e-15 6.6524e-16)
(0 -0 0)
(1.90911e-15 -3.96467e-16 1.44408e-15)
(1.04135e-15 8.54976e-16 -2.61024e-17)
(-4.38305e-16 8.50994e-17 -4.12018e-16)
(-3.94722e-15 6.85062e-16 -5.37788e-15)
(2.7064e-15 1.9493e-15 9.18023e-15)
(7.74623e-15 -1.86716e-15 4.44097e-15)
(-6.52153e-18 4.1798e-16 2.06768e-15)
(-4.36468e-15 2.08916e-15 -2.04715e-15)
(5.18126e-24 -5.83107e-24 -8.67734e-24)
(-7.92571e-16 -2.86107e-16 1.55899e-15)
(2.00994e-15 -2.9292e-15 -2.85971e-16)
(1.06384e-16 -9.49866e-16 3.61527e-15)
(3.33163e-16 8.93328e-16 5.99322e-16)
(-4.30213e-15 1.85994e-15 1.67774e-15)
(-1.01795e-14 6.34104e-15 4.09302e-15)
(1.2128e-15 1.43091e-17 1.71336e-15)
(6.9426e-15 1.67409e-15 5.31497e-15)
(5.00908e-15 -6.80623e-16 1.94732e-15)
(-3.51201e-16 5.79625e-16 7.24262e-16)
(-1.41535e-15 1.16301e-15 1.33855e-15)
(2.63726e-15 -2.44229e-15 5.13404e-15)
(0 -0 0)
(-9.45736e-15 3.34608e-16 -8.17553e-18)
(-8.86536e-15 5.49676e-15 3.15234e-15)
(1.26437e-14 -1.16833e-14 -1.19882e-14)
(4.63945e-16 9.63532e-17 5.48391e-16)
(-1.125e-14 -3.33538e-15 -8.77319e-15)
(-7.24218e-16 3.23446e-16 2.92275e-16)
(8.39052e-15 5.56937e-16 -2.46546e-15)
(2.19458e-15 -1.03592e-15 2.55151e-15)
(-6.76319e-15 -3.79711e-16 -2.16708e-15)
(5.15882e-15 -8.99221e-16 8.75839e-16)
(1.41415e-16 9.23625e-16 4.93276e-16)
(2.06118e-14 3.76838e-15 -2.21288e-15)
(6.22548e-15 3.02225e-15 -2.14254e-16)
(-9.11058e-16 -5.84627e-16 1.90166e-15)
(-1.75781e-15 3.23799e-15 5.7272e-15)
(4.64701e-15 -1.85644e-16 -5.31548e-15)
(-3.74237e-16 5.36612e-16 -9.22537e-17)
(-5.91585e-15 7.30573e-15 -3.52423e-15)
(5.22906e-15 -5.50671e-15 3.2039e-15)
(-1.34875e-16 -2.23314e-15 1.32377e-15)
(-2.44839e-15 -5.36844e-15 2.5456e-15)
(-1.29236e-15 3.46984e-15 -3.2851e-15)
(-7.86305e-16 3.60038e-15 -2.88179e-16)
(1.51932e-15 1.27629e-15 1.01246e-15)
(-6.18024e-15 4.54736e-16 2.73852e-15)
(-4.41966e-16 2.9016e-16 1.67297e-16)
(4.62583e-16 4.46582e-15 -2.00586e-15)
(2.56663e-16 -3.93672e-15 -4.87865e-15)
(-4.71108e-15 6.57215e-15 6.0215e-15)
(3.61382e-15 -2.28736e-15 -4.66745e-15)
(-5.94331e-15 -1.93321e-15 1.81568e-15)
(-1.33404e-15 1.69011e-15 5.36095e-16)
(-1.86986e-16 -3.92489e-16 1.30274e-16)
(-2.05461e-15 -9.72162e-17 -6.06393e-16)
(-2.28796e-15 2.04891e-15 9.71366e-16)