/*--------------------------------*- C++ -*----------------------------------*\
| =========                 |                                                 |
| \\      /  F ield         | OpenFOAM: The Open Source CFD Toolbox           |
|  \\    /   O peration     | Version:  5.0                                   |
|   \\  /    A nd           | Web:      www.OpenFOAM.org                      |
|    \\/     M anipulation  |                                                 |
\*---------------------------------------------------------------------------*/
FoamFile
{
    version     2.0;
    format      ascii;
    class       volVectorField;
    location    "50.4676134421789371";
    object      GradTUP1;
}
// * * * * * * * * * * * * * * * * * * * * * * * * * * * * * * * * * * * * * //

dimensions      [0 -1 -1 1 0 0 0];

internalField   nonuniform List<vector> 
60000
(
(-0.0692579 -9.59955 -0.00234982)
(-0.0201733 -9.59097 -0.120947)
(0.100215 -5.19335 -0.202054)
(0.138866 0.604794 -0.104428)
(0.0567494 3.32851 -0.0452861)
(0.00685162 1.15745 -0.07644)
(0.00351169 0.0703184 0.104145)
(-0.029751 -0.424731 0.304709)
(-0.013531 -0.042505 0.388684)
(-0.0415579 -1.93703 0.382107)
(-0.090452 -5.6652 0.308365)
(-0.0248424 -6.97184 0.199472)
(0.0120767 -3.33136 0.0707942)
(-0.0491166 0.477107 0.0292009)
(-0.0874105 0.630378 -0.0482693)
(0.0652901 0.711693 -0.00101811)
(0.234088 4.61826 0.15313)
(0.23351 8.37119 0.0226558)
(0.114797 6.8995 -0.0103264)
(-0.0165469 0.758485 0.115522)
(-0.144161 -3.40588 0.325142)
(-0.241213 -4.63329 0.3719)
(-0.110103 -2.61135 0.190113)
(0.170174 5.97293 -0.19124)
(0.272881 17.2202 -0.505517)
(0.0735181 23.0393 -0.593803)
(-0.165651 17.3007 -0.525947)
(-0.215255 5.26402 -0.416399)
(-0.163378 -3.5779 -0.264472)
(-0.146982 -4.94802 -0.0733741)
(-0.130541 -2.50694 0.128838)
(-0.0896069 -2.17064 0.160394)
(0.00131041 -5.38302 0.182405)
(0.137116 -8.24798 0.148419)
(0.213457 -7.10837 0.316799)
(-0.0234254 0.00109542 0.420655)
(-0.176906 2.76322 0.153027)
(-0.0643667 0.216536 0.0681719)
(-0.0223852 -3.87761 0.107252)
(-0.0443053 -7.69179 0.0897313)
(-0.0799724 2.6329 0.0475945)
(-0.213358 2.34329 -0.0146425)
(-0.293887 0.870846 0.0136163)
(-0.236512 -0.722445 0.039398)
(-0.0306675 -1.69679 0.0313898)
(0.086004 -1.08706 -0.0545115)
(0.0281951 -0.0771875 -0.161972)
(-0.0331425 0.335838 -0.166775)
(0.0281106 -0.163353 -0.0977311)
(0.108967 0.583818 -0.00897595)
(0.0586907 1.46202 -0.030779)
(-0.0927506 1.99657 -0.205629)
(-0.200283 1.43059 -0.294285)
(-0.146314 -0.0641041 -0.219671)
(-0.051698 -1.14115 -0.183812)
(-0.0509481 -1.89929 -0.403474)
(-0.0637158 -2.42527 -0.654938)
(0.0176641 -2.01884 -0.580845)
(0.0834018 -0.165682 -0.238554)
(-0.0145548 1.35262 0.198747)
(-0.13996 1.41006 0.341728)
(-0.10396 0.650569 0.113698)
(-0.07427 0.22957 0.014839)
(-0.11241 -0.65078 0.116947)
(-0.0948574 -1.5061 0.159645)
(-0.0181493 -1.76627 0.119131)
(0.0597546 -1.47816 0.107913)
(0.119515 -1.03458 0.135012)
(0.0669309 -0.340795 0.0770451)
(-0.106799 0.440982 0.0488625)
(-0.0720629 0.352829 0.25668)
(0.0754597 0.0350393 0.305632)
(0.0719818 0.202765 0.0577482)
(0.0439323 0.257537 -0.161417)
(-0.00794454 0.611532 -0.172249)
(-0.244622 1.23147 -0.225603)
(-0.0946591 -0.176857 -0.503465)
(0.265111 -1.10383 -0.294489)
(0.215733 0.167212 0.0867032)
(0.0576232 1.7058 0.14791)
(0.363198 3.44572 0.998164)
(-0.372547 5.732 0.408958)
(-0.866904 3.16731 -0.0922958)
(-0.740804 -0.514122 -0.482897)
(-0.160669 -2.48155 -0.708646)
(0.27764 -2.75796 -0.74748)
(0.291381 -1.39997 -0.704481)
(-0.0049125 0.629658 -0.465849)
(0.00391129 -0.0746386 0.143537)
(0.374263 -0.572616 0.645712)
(0.430715 1.36027 0.693566)
(-0.01396 4.48754 -0.351006)
(-0.646638 5.02506 -1.58704)
(-0.739277 1.51027 -2.06314)
(-0.516936 -2.76416 -1.92119)
(-0.478418 -5.72643 -2.12436)
(-0.356649 -7.71286 -2.60116)
(0.412828 -7.37303 -2.66525)
(1.40556 -1.97939 -2.21665)
(1.41221 7.89171 -1.36302)
(0.289109 15.5505 -0.396862)
(-0.942443 13.421 0.347585)
(-1.80741 3.60608 1.0552)
(-2.01798 -8.43954 2.1333)
(-1.22605 -15.1708 2.38192)
(0.226593 -14.6499 2.05856)
(1.54542 -7.57469 1.86681)
(1.88743 1.04047 1.41419)
(1.15268 6.44003 0.0799997)
(-0.0328165 7.24148 -1.45683)
(-0.597205 4.09813 -1.98603)
(-0.218045 -0.750583 -1.61365)
(0.327766 -3.01396 -1.20425)
(0.480571 -1.31549 -0.906614)
(0.136183 1.75521 -0.311157)
(-0.615803 3.90537 0.211722)
(-0.727869 1.20076 0.166033)
(0.0426512 -4.75336 0.446857)
(0.661069 -6.27563 1.21839)
(0.762603 -2.50705 1.34607)
(0.404352 0.713866 0.617444)
(-0.139751 2.82126 0.235676)
(-0.529415 2.06312 -0.183972)
(-0.437849 0.147968 -0.431971)
(-0.122956 -0.646145 -0.493819)
(0.0912392 -0.737192 -0.488723)
(0.168896 -0.570486 -0.379878)
(0.0414446 -0.0408544 -0.108063)
(-0.069947 0.25313 0.326275)
(0.114043 -0.534175 0.666621)
(0.305641 0.104555 0.674248)
(0.109771 2.07503 -0.0285318)
(-0.360971 3.01627 -0.965801)
(-0.547599 1.51659 -1.40685)
(-0.407737 -0.869449 -1.23266)
(-0.291911 -2.12385 -1.0756)
(-0.152526 -2.48286 -1.11893)
(0.321877 -1.7645 -1.09436)
(0.96856 -0.188123 -0.92824)
(1.04144 2.77465 -0.551166)
(0.255249 6.37981 0.164689)
(-0.858921 6.69818 0.894991)
(-1.62461 1.82802 1.3649)
(-1.58521 -4.93355 1.75301)
(-0.686615 -7.93506 1.50958)
(0.481845 -6.41292 1.06111)
(1.3545 -2.21723 0.877387)
(1.49116 2.4781 0.655257)
(0.852795 5.47124 -0.207297)
(-0.0642405 5.532 -1.2652)
(-0.547458 3.58934 -1.59165)
(-0.381603 1.2379 -1.19776)
(0.0554473 -0.52048 -0.646131)
(0.329031 -0.674343 -0.29915)
(0.229401 0.513953 0.118818)
(-0.238171 1.73097 0.464761)
(-0.530693 1.17862 0.446543)
(-0.239257 -1.02481 0.359552)
(0.238961 -2.5283 0.594535)
(0.540287 -1.96006 0.723138)
(0.146639 -0.28673 0.162049)
(-0.00418916 0.454007 0.0737536)
(-0.15575 0.659215 -0.0658025)
(-0.131337 0.257256 -0.1399)
(-0.0393533 -0.0176349 -0.11761)
(0.00453536 -0.0307842 -0.0999699)
(0.0248058 -0.0305534 -0.0950703)
(0.00225752 0.0112015 -0.0213171)
(-0.0586692 0.184121 0.118047)
(-0.0279878 0.0588509 0.226177)
(0.0773047 -0.0726611 0.212698)
(0.049978 0.410732 0.0238783)
(-0.129012 0.957513 -0.255736)
(-0.202772 0.733554 -0.37239)
(-0.131489 0.0473286 -0.291927)
(-0.0694588 -0.329995 -0.226605)
(-0.0230066 -0.498711 -0.241994)
(0.133237 -0.459451 -0.227123)
(0.337102 -0.0158537 -0.161536)
(0.29725 0.324528 -0.106634)
(0.047871 0.529966 0.0864164)
(-0.299633 1.13483 0.382533)
(-0.575376 0.482881 0.542774)
(-0.505306 -1.01614 0.532252)
(-0.151993 -1.59565 0.318001)
(0.143727 -1.11446 0.142848)
(0.317116 -0.585191 0.104034)
(0.43334 -0.0581403 0.124202)
(0.341822 0.61615 -0.0580644)
(0.0139525 1.18226 -0.437385)
(-0.194479 1.19803 -0.516335)
(-0.155518 0.707918 -0.304607)
(-0.033368 0.164547 -0.108748)
(0.0609453 -0.0603399 -0.0294595)
(0.090421 0.026563 0.0812711)
(-0.0193542 0.259273 0.20366)
(-0.15732 0.401757 0.154812)
(-0.10947 0.0799087 0.0709107)
(0.00761099 -0.318188 0.120786)
(0.118498 -0.516463 0.160422)
(0.0234637 -0.0801548 0.0310655)
(0.00928235 -0.0279598 0.019736)
(-0.0231644 0.0889429 -0.00476506)
(-0.0167429 0.063864 -0.00367602)
(-0.00613004 0.0325063 0.0185375)
(-0.00685777 0.0244695 0.0261923)
(-0.0012626 0.000413579 0.00154334)
(0.00017366 0.000856807 -0.0115016)
(-0.0317122 0.106302 0.0213739)
(-0.0424483 0.142458 0.0594565)
(0.00156261 0.0375509 0.0632157)
(0.0167763 0.0248913 0.00512982)
(-0.0482558 0.149826 -0.0488129)
(-0.0544921 0.0828992 0.0151782)
(0.014623 -0.0289661 0.0933905)
(0.0280923 0.0730306 0.0649513)
(-0.0053576 0.0441173 -0.0302703)
(0.0596535 -0.226025 -0.0776022)
(0.231388 -0.105641 -0.0624645)
(0.183475 0.172214 -0.0371606)
(-0.00282043 -0.217359 -0.00462012)
(-0.079212 -0.283623 0.0644089)
(-0.0707038 -0.0632619 0.0645259)
(0.00804005 -0.0620356 -0.00248345)
(0.0323242 0.191789 -0.0422631)
(-0.0148873 0.231849 -0.0207714)
(-0.0396313 0.0964707 -0.00914957)
(0.00431624 -0.0101198 -0.00755335)
(0.0875078 -0.086918 -0.0131627)
(0.0445153 -0.00751932 -0.135388)
(-0.0444475 0.283409 -0.15074)
(-0.0415707 0.348519 -0.00464821)
(-0.0125027 0.12177 0.0605097)
(0.000743494 -0.0185024 0.0204096)
(0.00878616 0.029267 0.00225857)
(0.00795672 0.0152593 0.0567852)
(-0.0233572 0.0484086 0.0408227)
(-0.0177097 0.0711906 -0.0244579)
(-0.0038877 0.0099583 0.00390776)
(0.00234531 -0.0193597 0.0359093)
(-0.00370535 0.0111796 0.00417339)
(0.000471496 -0.0120415 0.00122864)
(-0.000666367 -0.0019593 0.0015765)
(0.00348004 0.008603 0.0147186)
(0.00254261 0.00783122 0.0327146)
(-0.0045586 0.0118459 0.0410989)
(-0.00312522 -0.00776106 0.022937)
(0.00364939 -0.0247076 -0.00448414)
(-0.00794102 0.0175175 -0.0103053)
(-0.0234075 0.0637847 0.0040108)
(-0.0102341 0.0457138 0.0131724)
(0.0081458 -0.00580168 0.00112127)
(-0.0143048 -0.0291912 -0.0192689)
(-0.0136738 -0.0809116 0.0460845)
(0.0431604 -0.0774546 0.134349)
(0.0554337 0.0752612 0.120052)
(0.00210596 0.151968 0.0328785)
(0.00627521 -0.0347728 -0.0222082)
(0.189355 -0.111674 -0.0487031)
(0.214906 0.147246 -0.0503836)
(0.0298856 -0.0690025 0.0143827)
(-0.0167976 -0.382888 -0.0113939)
(0.0870703 -0.183038 -0.0978514)
(0.175296 0.109756 -0.157942)
(0.0600597 0.346019 -0.0624641)
(-0.0300667 0.156641 0.00749612)
(-0.0209746 0.029387 0.00506785)
(-0.0321022 0.0223263 -0.00189176)
(-0.00524538 -0.00016585 -0.00109872)
(0.0162273 -0.0617109 -0.0487556)
(-0.00456157 -0.0504085 -0.0918295)
(-0.00974127 0.0920111 -0.0103475)
(-0.00640233 0.0653506 0.0512321)
(-0.00216807 -0.0691951 0.0186016)
(0.00275047 -0.067421 -0.0184059)
(0.00522119 -0.0129645 0.00228742)
(0.00152376 -0.0155764 0.0211435)
(0.00542996 0.00096023 -0.0160509)
(0.00943495 -0.0150832 -0.0186303)
(-0.00206353 0.00183588 0.00486859)
(-0.00178073 0.00236298 -1.50364e-05)
(-0.00136854 0.00368907 -0.00176042)
(0.000615387 0.00148182 0.000463603)
(0.00177104 0.00675162 0.00609658)
(0.000954036 0.00566978 0.0138259)
(-0.00232437 0.0068684 0.0204783)
(-0.00247109 0.000780592 0.0171067)
(0.00245311 -0.0140636 -0.00094382)
(0.000577757 -0.0119912 -0.0128016)
(-0.00779801 0.0090987 -0.00819696)
(-0.00666503 0.0191179 0.00152108)
(0.00385795 -0.00347271 0.000575863)
(-0.0010348 -0.0319756 -0.00813145)
(-0.00472651 -0.0430245 0.0109327)
(0.0203511 -0.0274962 0.0552139)
(0.0303555 0.0275456 0.0627715)
(0.00279796 0.0780641 0.0301143)
(-0.0260546 0.0395496 0.00209527)
(0.103129 -0.0540526 -0.019383)
(0.212412 0.030236 -0.0729518)
(0.0518866 0.109708 0.0570264)
(-0.000301264 -0.205236 0.0139696)
(0.135524 -0.158925 -0.168752)
(0.178482 0.128505 -0.173949)
(0.0332478 0.173748 -0.0262766)
(-0.0199773 0.0459284 0.0164305)
(-0.00174518 -0.00131074 0.00355304)
(0.0015226 -0.00120331 0.000151028)
(-0.00838898 0.00334727 0.00353775)
(-0.000650257 0.00163714 0.00124639)
(-0.00176513 -0.0345169 -0.0298449)
(0.000303389 -0.024393 -0.028316)
(-0.00103784 0.0218464 0.00714147)
(-0.0046434 -0.00208659 0.00695682)
(0.00107655 -0.0401909 -0.0135945)
(0.00537363 -0.0285059 -0.0120316)
(0.00382621 -0.0151003 0.00621235)
(0.00340689 -0.00841394 0.00170498)
(0.00540734 -0.012403 -0.00825122)
(0.00223471 -0.0129512 -0.00240302)
(0.000303112 -0.00340721 -0.000237471)
(-0.000232182 0.000467258 -0.000949285)
(0.000582977 0.00173618 -0.000174258)
(0.000447697 0.00431593 0.00141111)
(-0.000192823 0.00271126 0.00191429)
(-0.00085791 0.00198962 0.00303598)
(-0.00107742 0.00120116 0.00491264)
(0.000148257 -0.00047623 0.000407396)
(0.000633374 -0.00442195 -0.00602506)
(-0.00140304 -0.00347599 -0.00567066)
(-0.00173744 0.00298057 0.00152821)
(0.00182905 0.0011408 0.00215478)
(0.00164808 -0.0195167 -0.00185211)
(0.000543755 -0.0188462 0.00480706)
(0.00811737 -0.00388825 0.0175684)
(0.0088718 0.00858781 0.0185943)
(0.000529217 0.0156197 0.00945199)
(-0.0279291 0.022146 0.00649018)
(0.0141455 0.00138457 0.011132)
(0.140816 -0.0263617 -0.0530082)
(0.0539639 0.135544 0.0585987)
(-0.0162321 0.013324 0.0430916)
(0.119027 -0.0649934 -0.169139)
(0.115916 0.0885632 -0.129018)
(0.0117901 0.0646636 -0.00730427)
(-0.0100733 0.0100298 0.0108499)
(-0.00517339 -0.000174885 0.00365692)
(0.00113057 0.00024623 -0.000388193)
(0.000812934 0.000131706 -0.000746087)
(-0.000106654 0.00180704 0.00208649)
(-5.77638e-05 0.000410657 0.000642545)
(-5.61095e-06 -0.00865542 -0.00692309)
(0.00203747 -0.00596677 -0.00392013)
(-0.000268203 0.00315118 0.00196968)
(-0.00137823 -0.000569776 -0.00248312)
(0.00154615 -0.00761472 -0.00652054)
(0.00250162 -0.00738808 -0.00208629)
(0.00159874 -0.00460762 0.00195771)
(0.00144194 -0.00402437 -0.000727151)
(0.00107093 -0.00573251 -0.00123088)
(0.000197961 -0.00136002 -0.000289891)
(0.000410032 -0.00100491 -3.28854e-05)
(0.000623814 0.000239915 0.00012308)
(0.000288582 0.00164248 0.000442826)
(-7.08381e-05 0.000591149 0.000230324)
(-0.000172037 0.000250922 -0.000356234)
(-0.000143964 -0.00024901 -4.60622e-06)
(-6.30656e-05 -1.82628e-06 0.000155018)
(-8.42513e-05 0.000366578 -0.00154266)
(-0.000110766 -0.00126623 -0.00167139)
(0.000476895 -0.00131059 0.00127335)
(0.00127498 0.00159718 0.00225937)
(0.000853106 -0.00632329 -0.000285965)
(0.00233054 -0.00504046 0.00370951)
(0.00534136 0.002944 0.0076682)
(0.00265076 0.00460667 0.00507613)
(8.34608e-05 0.000211615 0.000278453)
(-0.0129669 0.00201512 0.00448668)
(-0.0201641 0.00823414 0.0195686)
(0.0547656 -0.0198788 -0.0173975)
(0.0432451 0.0475025 0.0343054)
(-0.0213614 0.0739985 0.0308456)
(0.0738861 -0.0113763 -0.116528)
(0.0621221 0.0363201 -0.0762232)
(0.00294589 0.018168 -0.00340723)
(-0.00516024 0.00119681 0.00504699)
(-0.000910335 0.000147079 0.000723923)
(-0.000635561 -0.000262492 0.000340198)
(0.000170486 2.75781e-05 -0.000164381)
(-1.98128e-05 -0.000136178 -0.000245098)
(0.000119851 0.000526334 0.00048575)
(-8.24379e-06 0.000232572 0.000386469)
(0.000259747 -0.000774591 -0.000397443)
(0.000708425 -0.00091047 0.000205953)
(1.81573e-05 8.33152e-05 0.000334396)
(-0.000114406 9.56459e-05 -0.000987483)
(0.000593892 -0.00128772 -0.00143424)
(0.000575274 -0.00125756 -5.54292e-05)
(0.000385273 -0.00102875 0.000187093)
(0.000269704 -0.00149973 -0.000309459)
(9.09643e-05 -0.000555632 -0.000217954)
(0.000167649 -0.000379634 -0.000173917)
(0.000196254 8.86342e-05 -2.18643e-05)
(0.000104457 0.000381604 0.000143662)
(-3.27848e-05 0.000500195 0.00052349)
(-2.16361e-05 3.68692e-05 2.49528e-05)
(-4.83814e-05 1.36374e-05 -6.6159e-06)
(3.7309e-07 -1.43199e-05 7.25666e-06)
(3.35136e-06 -0.000130982 -0.00037647)
(-0.000265393 0.000151245 -0.000966129)
(0.000180375 -0.000224594 0.000381189)
(0.000565164 0.000461671 0.000924819)
(-0.000134735 -0.000237966 -0.000301362)
(0.00123146 -0.00128318 0.00143025)
(0.00274261 0.00141814 0.00295143)
(0.000891533 0.00163353 0.0014025)
(0.000239617 0.000186446 -0.000796768)
(-0.00189263 -0.000590879 0.00017302)
(-0.0117652 0.00385289 0.00911717)
(0.00943329 -0.00613831 0.00013064)
(0.0240269 -0.0102496 0.0158131)
(-0.0107181 0.0325544 0.0121912)
(0.0350899 -0.000982168 -0.0580885)
(0.0296736 -0.00114995 -0.0368151)
(0.000300809 -0.000500635 -0.0017589)
(-0.00182781 -0.000197216 0.00115006)
(-0.000601694 -7.61749e-05 0.00026569)
(-6.1899e-06 0.00013059 -2.06014e-06)
(-6.99985e-05 1.40364e-05 0.000141525)
(-1.3463e-06 -3.43954e-06 -3.2687e-06)
(-3.64001e-06 -1.44727e-05 -1.27342e-05)
(1.42281e-07 1.04359e-05 9.15824e-06)
(-7.06431e-05 0.000223808 0.00011702)
(2.18838e-06 -1.00252e-06 2.85402e-06)
(9.44143e-05 -0.000126501 0.000163455)
(1.25091e-06 -5.5798e-06 2.48541e-05)
(-7.26575e-06 1.1333e-05 -0.000125899)
(7.03862e-05 -0.000110274 -0.00011337)
(0.000124759 -0.000269648 4.78399e-05)
(6.96053e-05 -0.000362101 -3.45676e-05)
(7.70158e-07 -5.42923e-06 -3.00424e-06)
(0.000146651 -9.8454e-05 -7.45928e-05)
(0.000213014 -0.000123274 -9.41685e-06)
(1.61455e-05 2.8472e-06 1.38331e-05)
(-1.8885e-06 2.59131e-06 7.00316e-06)
(-1.53682e-06 1.16133e-06 1.91708e-06)
(1.32081e-06 -9.59199e-07 -3.90731e-06)
(2.6285e-07 4.06072e-08 -2.10889e-07)
(3.04037e-07 -4.35923e-06 -1.27029e-05)
(-7.88884e-06 -1.07692e-06 -3.58892e-05)
(0.000107419 -0.000249581 8.7276e-05)
(0.000129473 5.64484e-05 0.000227948)
(-4.1713e-05 0.000409174 5.48973e-06)
(0.000254507 -0.000107845 0.000192127)
(0.00107966 0.00035562 0.000966786)
(0.000449288 0.000190654 0.000725299)
(3.40591e-05 0.000258333 -0.000309682)
(0.000184639 -0.000302055 -0.00080431)
(-0.0022463 0.00122105 0.000901039)
(2.33553e-05 -0.000173015 0.000677919)
(0.00839409 -0.0109337 0.00571027)
(-0.00244503 0.00433373 0.00388405)
(0.0112518 -0.000166824 -0.0192652)
(0.0112841 -0.00675328 -0.0131969)
(0.000333828 -0.00207231 -0.000791651)
(-0.000466048 8.835e-05 -2.14748e-05)
(-0.000424933 5.36024e-06 0.00036184)
(-9.40011e-06 1.20364e-06 9.77548e-06)
(9.3466e-08 -1.96991e-07 -6.10436e-07)
(2.37429e-07 5.54042e-07 4.02262e-07)
(-3.18196e-07 -1.04566e-06 -7.14215e-07)
(-6.96798e-09 -6.22872e-07 -3.99981e-07)
(1.24168e-07 -2.80974e-07 -1.04993e-07)
(-6.47147e-07 5.35699e-07 -3.88088e-07)
(5.6621e-08 4.49907e-08 2.41739e-07)
(2.95021e-07 -4.79783e-07 -9.31288e-08)
(-1.66126e-07 -1.463e-07 3.4311e-07)
(1.64946e-06 2.10651e-06 -1.75808e-06)
(1.9307e-06 -3.00406e-07 1.24381e-06)
(2.74527e-06 1.12772e-06 5.83533e-06)
(-3.08337e-08 -3.18758e-07 -1.86348e-06)
(4.42179e-06 -4.0793e-06 -3.89884e-06)
(7.88914e-06 -7.11432e-06 -4.67809e-07)
(9.71318e-07 -1.66973e-06 8.00452e-07)
(-1.28464e-08 -9.90274e-08 1.20143e-07)
(-7.06041e-09 -7.0864e-10 1.16741e-08)
(-6.65218e-09 8.91445e-09 7.15728e-09)
(5.11228e-08 -1.17954e-07 6.30874e-09)
(-6.64276e-08 3.08702e-07 1.85753e-07)
(-1.00937e-06 -3.06171e-07 -6.88255e-06)
(-2.21163e-06 -3.61875e-06 -9.10499e-06)
(0.00014308 0.000102979 0.000373448)
(-1.38473e-05 4.12134e-05 -2.91914e-06)
(0.000273036 -0.000146237 0.00032484)
(0.000365782 -0.000131698 0.000468231)
(0.000251242 -0.00017635 0.000447277)
(2.35229e-06 -7.70842e-06 2.61323e-05)
(1.60993e-05 -5.28649e-06 -3.49071e-05)
(-0.000334695 0.000415919 4.13692e-05)
(-0.000327959 0.000327296 -3.22625e-05)
(0.00202622 -0.00290462 0.00156769)
(-0.000204202 -0.000775481 0.00131292)
(0.00232838 0.000496948 -0.00389186)
(0.00282136 -0.00205148 -0.00273722)
(0.000372149 -0.00105898 -0.000518687)
(-0.000298652 -0.000198687 0.00020625)
(-1.03266e-05 4.14213e-06 6.726e-06)
(-1.67887e-07 1.63924e-07 9.48723e-08)
(-1.35649e-09 8.26527e-09 5.28841e-09)
(-1.64721e-09 -2.5509e-09 -1.63618e-09)
(1.50719e-09 3.6646e-09 2.20431e-09)
(-1.68867e-11 2.23229e-09 1.2748e-09)
(-7.83017e-10 1.32925e-09 4.15829e-10)
(3.05006e-09 -1.53855e-09 1.60175e-09)
(1.00391e-10 -7.10741e-10 -7.12167e-10)
(-1.19378e-09 2.34786e-09 -1.53293e-09)
(-3.99483e-09 -2.3836e-09 7.95178e-09)
(6.79075e-08 1.45261e-07 -5.42553e-08)
(9.21761e-09 3.44741e-08 2.41406e-09)
(-1.97027e-07 1.57158e-07 -2.08038e-07)
(-1.07449e-09 4.3135e-09 -3.86651e-09)
(2.61667e-08 -5.76197e-09 -2.18442e-08)
(8.1891e-08 -8.99803e-08 1.24994e-08)
(1.27873e-08 -3.17218e-08 1.3862e-08)
(2.18415e-10 -2.07748e-09 1.35093e-09)
(-1.54405e-11 -3.93216e-11 5.58807e-11)
(1.16979e-12 -7.71055e-12 -9.47452e-13)
(-5.65289e-11 2.12297e-10 -5.25068e-12)
(-4.25823e-10 3.97668e-09 -1.72217e-09)
(8.29248e-08 -1.53457e-07 1.16409e-07)
(-3.54578e-06 2.66558e-06 -6.11762e-06)
(4.18466e-06 2.15098e-06 1.14625e-05)
(-1.41287e-06 9.01793e-06 4.4448e-06)
(1.2595e-05 -1.67176e-05 1.26932e-05)
(1.12286e-05 -9.01152e-06 1.63348e-05)
(1.84523e-06 -1.57844e-06 3.67756e-06)
(-1.27852e-06 1.21224e-06 -4.99784e-06)
(8.93156e-07 -2.22578e-06 -2.15151e-06)
(2.12152e-06 -2.4892e-06 2.20176e-07)
(-0.00033809 0.00021919 -0.000123636)
(0.000345908 -0.000344186 0.000253539)
(9.03846e-05 -0.000526319 0.000526112)
(0.000340628 0.000168946 -0.00054092)
(0.000339912 -0.000272519 -0.000251388)
(0.000147115 -0.000579774 2.56255e-05)
(-5.33959e-06 -1.40235e-05 7.7859e-06)
(-2.57089e-07 -6.81018e-08 2.73968e-07)
(-4.39806e-09 5.51416e-09 7.57248e-09)
(3.69854e-11 2.2023e-10 1.82124e-10)
(1.17925e-11 1.47429e-11 9.46895e-12)
(-3.97117e-12 -4.53436e-12 -2.73809e-12)
(1.40536e-13 -2.72009e-12 -2.03561e-12)
(3.66214e-12 -3.14944e-12 -1.49955e-12)
(-1.17631e-11 3.15036e-12 -2.82593e-12)
(-1.03689e-12 3.08269e-12 1.53028e-12)
(3.82488e-12 -7.49998e-12 3.91729e-12)
(-8.72817e-12 -3.11325e-12 1.76974e-11)
(1.35196e-10 2.0621e-10 -1.74703e-10)
(3.91117e-11 3.42129e-10 -1.36407e-10)
(3.96215e-10 -8.25094e-10 3.38229e-10)
(4.23223e-12 2.30287e-12 4.50439e-12)
(7.68239e-11 1.21994e-10 1.20511e-11)
(4.75036e-10 -2.11611e-10 4.91333e-10)
(9.72931e-11 -1.50726e-10 1.94225e-10)
(3.92543e-12 -1.15851e-11 1.35309e-11)
(3.53631e-14 -3.74014e-13 1.82451e-13)
(3.93609e-14 -4.78616e-14 4.50287e-14)
(9.0025e-14 -4.95168e-13 -1.17491e-12)
(-3.69051e-12 2.66354e-12 8.2546e-12)
(-1.69763e-10 2.74637e-10 -8.06398e-11)
(2.19642e-09 -2.13456e-09 1.96319e-09)
(1.1342e-07 -5.00195e-08 1.6146e-07)
(-1.72658e-07 -6.11865e-07 -7.98605e-07)
(8.15484e-07 -1.30584e-06 5.309e-07)
(1.49604e-07 -1.27166e-07 1.83792e-07)
(1.92788e-08 -4.36474e-09 2.62511e-08)
(-4.71201e-09 -4.91172e-09 -4.62943e-09)
(8.64357e-09 -7.65924e-08 6.47141e-09)
(3.87353e-07 -9.06448e-08 9.59247e-08)
(7.00822e-07 2.1648e-07 7.38707e-08)
(-2.44055e-06 -3.75192e-07 -8.57117e-07)
(2.93342e-07 -7.48893e-07 1.30027e-06)
(3.49987e-06 1.78262e-06 -5.58917e-06)
(5.06858e-06 -3.32303e-06 -3.70631e-06)
(5.20021e-07 -1.17078e-06 -5.85923e-08)
(-5.2642e-09 -1.50069e-08 1.1302e-08)
(-1.45198e-10 3.43178e-11 -2.24355e-11)
(5.60856e-12 -2.33868e-11 -3.2497e-11)
(-1.23361e-13 -1.14029e-12 -1.6514e-12)
(-3.71017e-14 -3.4201e-14 -3.90164e-14)
(1.6944e-15 6.94553e-15 1.33408e-15)
(-4.63506e-15 3.8847e-15 3.65713e-15)
(-8.7014e-15 1.36681e-15 -2.70686e-15)
(1.55895e-14 2.28561e-14 1.26045e-14)
(4.67696e-16 -3.85178e-15 -1.28748e-15)
(-9.96602e-15 5.77015e-15 -1.07955e-14)
(-1.20102e-14 1.45401e-14 1.19685e-14)
(7.22111e-14 1.91161e-13 -1.52833e-13)
(5.00946e-13 1.37167e-12 -1.77605e-12)
(4.89375e-12 -9.22249e-12 7.34268e-12)
(5.30299e-14 -6.21848e-14 5.8305e-14)
(2.2602e-13 4.91998e-13 3.09325e-13)
(2.11144e-12 1.88621e-12 4.42679e-12)
(4.793e-13 1.20038e-13 1.51302e-12)
(1.75425e-14 -8.93217e-15 9.23381e-14)
(-4.90491e-16 3.93778e-16 5.97287e-16)
(-1.33661e-15 -3.15357e-15 -1.92309e-16)
(1.62822e-15 -4.28559e-15 1.06461e-15)
(1.27368e-14 -6.23591e-14 -1.29052e-14)
(7.09645e-14 3.76355e-13 6.90242e-14)
(-4.5913e-12 2.0972e-12 -3.27261e-12)
(1.37992e-10 -8.69817e-11 1.39193e-10)
(-1.62973e-09 5.81194e-10 -2.79979e-09)
(4.80086e-09 -3.36119e-09 1.06646e-09)
(1.95121e-09 -4.62092e-10 1.22114e-09)
(2.62628e-10 7.70043e-11 1.13863e-10)
(-1.10181e-11 -1.15397e-11 1.04573e-12)
(5.07399e-11 -3.06042e-11 2.4935e-11)
(-1.25125e-09 -5.78246e-10 1.05838e-10)
(-4.32452e-09 -2.54344e-09 8.19367e-10)
(9.5351e-09 5.94803e-09 -9.60104e-10)
(-8.20163e-11 -1.36933e-10 -4.06315e-10)
(5.8002e-09 6.23052e-10 -4.15245e-09)
(1.74311e-08 -1.33862e-09 -7.37017e-09)
(2.23679e-09 1.5856e-10 -3.82072e-10)
(1.5262e-11 6.98968e-11 2.95648e-11)
(-2.02661e-12 4.64794e-12 3.44478e-12)
(-1.06199e-13 2.22196e-13 2.39483e-13)
(-5.12462e-15 2.69217e-14 6.8606e-15)
(-3.70435e-16 -4.68788e-15 4.67928e-15)
(8.88009e-16 1.09981e-15 -4.21412e-16)
(3.13078e-15 -8.34345e-15 -9.58395e-15)
(-5.13669e-15 -6.1452e-16 1.33125e-15)
(-3.22935e-15 -1.85551e-15 -5.54337e-16)
(-3.28947e-15 4.20716e-15 6.64935e-16)
(5.65009e-15 -7.13634e-15 -4.76998e-16)
(-1.74504e-14 2.81517e-14 1.04965e-14)
(-5.2295e-15 6.92715e-15 1.30097e-15)
(-2.56064e-15 4.06319e-15 -2.72952e-15)
(1.45249e-14 -2.37341e-14 5.14291e-14)
(1.82086e-15 -1.93221e-15 3.3562e-15)
(-3.40107e-15 -9.86648e-15 -1.03402e-14)
(2.32948e-15 4.9189e-16 1.1086e-14)
(-4.70593e-15 4.12369e-15 -1.41444e-14)
(9.29994e-16 2.29028e-15 3.0247e-15)
(-1.47426e-15 2.54878e-16 3.65474e-15)
(3.46041e-15 -1.61948e-15 -1.19712e-16)
(2.50087e-16 5.15127e-16 5.77867e-16)
(-2.34889e-16 1.13683e-16 3.13677e-15)
(1.61147e-15 -1.4192e-15 6.86673e-16)
(6.48858e-15 8.14208e-15 2.01264e-15)
(1.30265e-13 -5.68143e-14 1.11705e-13)
(-3.29485e-12 4.2787e-12 -4.90203e-12)
(2.48224e-11 3.61921e-11 -1.3354e-11)
(1.99442e-11 8.11853e-12 2.43262e-12)
(2.84222e-12 7.45001e-13 -8.45432e-14)
(-5.3644e-15 1.38355e-15 -7.42728e-16)
(1.29997e-13 1.77817e-13 -1.41351e-14)
(1.55594e-12 1.33862e-12 -6.14851e-13)
(1.56615e-11 9.52231e-12 -6.97099e-12)
(-2.39411e-11 -6.62217e-12 9.61201e-12)
(-7.70459e-15 -3.41204e-14 -3.35297e-14)
(1.08775e-11 6.26471e-12 -7.89394e-13)
(7.28774e-11 3.20323e-11 2.25266e-12)
(1.24354e-11 5.78426e-12 3.29238e-12)
(1.64432e-13 3.67761e-14 4.17105e-13)
(-1.74325e-14 -1.5226e-14 2.56031e-14)
(-3.64456e-15 -9.66638e-15 9.45031e-15)
(3.72866e-15 4.23294e-15 -3.31528e-17)
(-5.52074e-15 4.2423e-15 6.5627e-17)
(2.67243e-15 -5.26532e-16 -7.12627e-16)
(-3.95868e-15 4.69874e-15 3.19927e-15)
(5.98038e-15 -1.4468e-14 -1.49917e-14)
(6.79098e-15 -1.58201e-15 4.95098e-16)
(-5.87393e-15 1.91248e-15 -2.82661e-15)
(-3.60491e-16 7.53803e-15 2.60915e-15)
(2.36273e-15 -4.20877e-15 -7.1606e-16)
(-3.80749e-15 1.7983e-14 1.00746e-14)
(1.18135e-14 -8.95799e-15 1.93376e-15)
(1.7242e-15 -5.87296e-15 -1.07006e-15)
(-1.05128e-15 -2.87808e-15 -2.64377e-16)
(4.40547e-16 -1.79079e-15 -4.92785e-15)
(1.36134e-15 2.36145e-15 -1.12109e-15)
(2.49867e-15 5.9192e-16 1.40295e-14)
(-2.12784e-15 4.02665e-15 -5.31713e-15)
(2.60379e-15 1.95175e-15 4.41594e-16)
(4.46347e-15 1.1764e-15 1.30419e-15)
(-5.6236e-15 -3.18142e-15 5.26339e-15)
(6.34834e-16 -1.4749e-15 -4.88689e-15)
(-3.15009e-15 1.28215e-15 -3.26551e-15)
(3.34855e-15 2.39866e-15 6.14328e-16)
(-2.17512e-15 2.75037e-15 8.77768e-16)
(-4.77524e-15 -5.96789e-16 -1.95688e-14)
(1.33199e-13 3.31375e-13 -1.16245e-13)
(1.42058e-13 9.15664e-14 -2.65513e-14)
(1.05674e-14 -6.00535e-17 3.92419e-15)
(-9.07111e-16 -3.98151e-16 -6.99693e-15)
(-3.81958e-15 -5.17983e-15 1.24636e-15)
(-4.28223e-15 3.03315e-16 -3.26783e-15)
(-3.65165e-14 -6.57375e-15 2.07894e-14)
(3.13925e-14 -2.10408e-14 -2.39254e-14)
(2.17593e-15 1.60987e-15 1.33677e-15)
(2.85811e-14 2.49036e-14 8.42177e-15)
(2.9065e-13 1.47653e-13 1.25309e-13)
(3.75501e-14 4.13931e-16 4.51689e-14)
(1.87469e-15 5.0551e-15 -6.50734e-15)
(-3.05855e-15 3.5577e-16 1.61188e-15)
(2.62548e-15 -1.59417e-16 -2.77233e-15)
(2.86861e-15 3.60974e-16 -3.66914e-16)
(9.18936e-16 1.03031e-14 -4.26702e-15)
(-2.67306e-15 -2.00771e-15 4.21052e-15)
(3.45927e-15 -1.3747e-15 3.541e-16)
(3.94315e-15 -4.91117e-15 4.6814e-15)
(-4.32852e-15 7.21047e-15 3.97832e-15)
(-2.16896e-15 -9.03598e-16 -3.69775e-15)
(8.68372e-15 -1.35542e-14 -8.75893e-16)
(-7.40887e-16 -8.75324e-16 -2.34655e-15)
(-4.05669e-15 1.80447e-15 1.12662e-15)
(2.27466e-15 -3.68869e-15 -2.32511e-15)
(-7.94937e-15 1.27501e-14 1.87481e-15)
(6.21465e-16 -8.63281e-15 -5.76322e-15)
(-3.15446e-15 -5.07221e-15 2.76123e-15)
(1.7239e-15 9.04503e-15 -7.09552e-15)
(2.00836e-15 -1.64097e-15 4.08401e-15)
(2.68295e-16 -3.13997e-15 -4.69285e-15)
(2.81742e-15 -4.17572e-15 -2.49789e-15)
(-5.73408e-15 1.07342e-14 -4.307e-15)
(6.0684e-15 -1.49884e-15 8.44207e-15)
(3.46465e-15 -7.76458e-16 1.15929e-15)
(3.77529e-15 -1.4054e-15 2.93866e-16)
(9.49408e-16 -6.83656e-15 -2.07661e-16)
(-2.16014e-15 9.60209e-16 8.24976e-16)
(3.04932e-16 7.82672e-15 -3.9848e-15)
(-6.46877e-16 2.42981e-15 -7.57882e-16)
(2.88426e-16 4.61317e-15 7.04019e-15)
(-3.72808e-16 4.22744e-15 5.87862e-15)
(-3.48288e-16 1.66255e-15 -3.5303e-15)
(-4.68003e-16 3.2973e-15 2.54424e-15)
(-2.4701e-15 2.05979e-16 2.17549e-15)
(6.98389e-17 1.3674e-15 -2.58341e-15)
(8.65336e-16 -2.41978e-15 -6.14943e-17)
(2.71717e-15 -2.92603e-15 1.27457e-15)
(5.42802e-15 2.57603e-15 4.70852e-15)
(3.38924e-15 -1.37703e-15 3.54829e-15)
(-4.1207e-17 -1.40832e-14 1.41517e-14)
(1.03927e-15 2.28687e-15 -1.22691e-15)
(-3.20488e-16 -1.9913e-15 2.92844e-15)
(2.7604e-15 6.72728e-15 -4.34068e-15)
(-2.76658e-15 -1.01356e-16 -4.05219e-15)
(3.18305e-16 6.23727e-15 -4.30385e-15)
(-1.52137e-15 4.85043e-15 -1.55321e-15)
(8.3678e-15 1.12726e-16 -1.20183e-15)
(5.20626e-16 4.15926e-15 -2.82839e-15)
(3.98413e-15 2.08827e-15 8.74248e-15)
(3.31727e-15 -6.71952e-15 1.48007e-15)
(1.2553e-14 -2.05911e-14 -9.76629e-15)
(-2.33987e-15 5.8609e-16 -1.42333e-15)
(9.77435e-16 -2.51073e-15 -1.87606e-16)
(-1.15305e-15 9.28559e-16 -7.42889e-16)
(3.88256e-15 -4.41323e-15 -4.00913e-15)
(-1.56667e-16 -2.02503e-15 -1.85769e-15)
(-6.65255e-15 7.77875e-16 6.50835e-15)
(2.13016e-15 -4.59525e-15 -7.82172e-15)
(9.94697e-16 -1.7532e-15 -1.67472e-15)
(6.0154e-15 4.92174e-15 4.60789e-15)
(-7.78452e-15 -1.34777e-15 2.84699e-15)
(-7.47213e-15 3.34234e-15 -8.95329e-16)
(3.03644e-16 -6.43572e-15 -2.99818e-15)
(-4.50373e-15 3.20002e-15 3.10831e-16)
(0 0 0)
(-2.339e-15 4.47619e-16 1.53265e-15)
(1.4032e-15 8.255e-16 2.15136e-16)
(1.68911e-16 8.50994e-17 1.54219e-16)
(-5.65018e-17 5.82539e-15 8.96411e-16)
(-3.48225e-16 -6.06796e-15 5.12853e-15)
(1.64662e-15 -6.28011e-15 7.09965e-15)
(-1.55934e-15 1.48257e-15 3.14371e-15)
(1.13383e-15 -2.08942e-15 2.61477e-15)
(-9.97367e-25 9.07514e-24 -8.67734e-24)
(4.62606e-16 -4.27706e-15 5.1748e-15)
(1.60869e-15 -2.9292e-15 -3.21279e-16)
(6.24318e-16 -2.66627e-16 -5.21619e-15)
(3.33163e-16 2.45926e-15 -2.96501e-15)
(-1.2385e-15 1.85994e-15 -2.00679e-15)
(-2.94421e-15 9.17154e-16 1.02262e-15)
(1.42286e-15 2.68353e-15 -1.17808e-15)
(-2.93858e-15 -3.43217e-15 4.77917e-15)
(-7.37994e-16 -6.80623e-16 -1.26373e-15)
(3.3604e-15 2.17704e-16 3.5265e-15)
(-9.50727e-16 1.41678e-15 -3.12666e-15)
(-4.21821e-15 -2.33304e-15 7.96037e-16)
(0 0 0)
(-5.35681e-15 3.03925e-15 -6.89278e-15)
(1.03256e-15 9.93328e-16 -2.97374e-15)
(-1.53494e-14 1.3485e-14 2.23121e-14)
(4.6845e-17 9.63532e-17 -1.60918e-16)
(-3.19185e-16 -2.37533e-15 -2.6578e-15)
(-1.24834e-15 3.65347e-15 9.99982e-16)
(-1.16493e-15 1.84839e-15 6.651e-15)
(-1.31427e-16 3.91457e-15 1.00083e-15)
(1.10056e-15 -4.27024e-15 -8.569e-16)
(9.52286e-16 -2.25275e-15 1.55988e-15)
(4.72894e-16 -1.40107e-15 -3.32876e-15)
(-7.6417e-15 -6.24883e-15 -5.1165e-15)
(-3.31697e-15 -2.97363e-15 -3.96504e-15)
(3.06013e-15 -2.41116e-15 1.15221e-15)
(1.03597e-14 -4.45758e-15 -1.16945e-15)
(-9.26116e-15 -1.85644e-16 4.53594e-16)
(3.67298e-17 1.69008e-15 1.73958e-17)
(7.95764e-15 6.89266e-16 -1.5047e-15)
(-5.96196e-15 2.06518e-15 2.844e-15)
(-1.34875e-16 3.08912e-15 -2.23049e-15)
(-2.09467e-15 1.11628e-14 -3.10261e-15)
(2.19184e-15 -3.40589e-15 2.35728e-15)
(-2.77264e-16 -3.78225e-15 5.09145e-15)