/*--------------------------------*- C++ -*----------------------------------*\
| =========                 |                                                 |
| \\      /  F ield         | OpenFOAM: The Open Source CFD Toolbox           |
|  \\    /   O peration     | Version:  5.0                                   |
|   \\  /    A nd           | Web:      www.OpenFOAM.org                      |
|    \\/     M anipulation  |                                                 |
\*---------------------------------------------------------------------------*/
FoamFile
{
    version     2.0;
    format      ascii;
    class       volVectorField;
    location    "50.4676134421789371";
    object      GradTP;
}
// * * * * * * * * * * * * * * * * * * * * * * * * * * * * * * * * * * * * * //

dimensions      [0 -1 0 1 0 0 0];

internalField   nonuniform List<vector> 
60000
(
(3.03671 1667.6 -8.26763)
(2.28354 1682.24 -9.88213)
(-0.55347 1675.91 -11.5074)
(-5.01983 1620.82 -14.3783)
(-5.75526 1525.72 -12.6309)
(-1.41546 1470.05 -4.46822)
(1.42956 1486.47 3.45066)
(0.458665 1519.2 7.02621)
(-0.0998459 1541.55 5.7842)
(1.31611 1576.33 2.39485)
(2.66985 1629.48 -1.56782)
(2.21839 1673.84 -6.01818)
(0.224321 1683.55 -10.0603)
(-1.24305 1654.28 -12.0946)
(-0.674357 1618.06 -10.4284)
(0.611562 1618.06 -5.34644)
(0.650788 1655.94 0.603533)
(-0.93847 1700.24 6.10086)
(-2.84287 1714.04 11.1448)
(-3.89988 1700.67 14.227)
(-3.79922 1675.23 12.0108)
(-2.11193 1653.28 5.27548)
(0.109794 1658.45 -0.1803)
(1.37854 1687.02 -1.52482)
(1.8347 1722.18 0.0900639)
(2.75652 1756.08 2.73126)
(5.14257 1803.18 4.16218)
(7.15631 1881.67 1.22502)
(4.5427 1961.93 -8.08454)
(-2.65961 1966.35 -18.3136)
(-7.63871 1873.53 -18.6175)
(-6.09159 1762.47 -9.90125)
(-0.113231 1703.43 -2.69781)
(6.66242 1722.76 2.28281)
(8.21878 1807.72 13.1355)
(0.556899 1852.66 26.3753)
(-6.96372 1762.11 22.1701)
(-4.91869 1640.3 7.30103)
(0.580898 1609.33 0.264037)
(2.89957 1637.41 -4.23608)
(1.1753 -243.221 -45.7018)
(-1.68047 -253.704 -41.2221)
(-5.59147 -273.67 -34.6135)
(-9.62595 -292.06 -28.7688)
(-8.87276 -298.983 -20.1041)
(-2.40159 -304.215 -7.72892)
(3.3857 -310.972 1.73099)
(5.05623 -304.204 1.8211)
(5.87869 -284.258 -5.95115)
(7.42666 -257.5 -14.8202)
(6.90042 -230.057 -21.1757)
(3.01153 -215.869 -23.9665)
(-2.22337 -222.509 -23.0769)
(-5.24118 -244.187 -18.4515)
(-2.91279 -269.193 -9.57193)
(3.14969 -282.35 2.2924)
(7.58011 -267.368 12.5209)
(6.90372 -224.37 18.6818)
(3.18189 -171.186 22.9556)
(0.385039 -134.657 25.4516)
(-0.591843 -112.192 20.9739)
(0.636812 -95.1899 9.30192)
(3.28587 -81.2286 -1.32643)
(4.91363 -69.5505 -4.80606)
(4.94843 -62.8857 -2.31435)
(5.13705 -58.6871 1.49373)
(7.00592 -51.5803 3.63983)
(8.13236 -42.4259 1.30429)
(3.5375 -40.3738 -6.794)
(-5.99104 -48.5371 -13.7411)
(-12.1567 -58.402 -8.62103)
(-10.4537 -68.325 6.3469)
(-3.88565 -82.3206 17.8964)
(3.17762 -105.356 20.8582)
(4.04625 -139.068 23.5118)
(-5.22095 -178.495 24.0096)
(-13.7588 -204.59 6.38789)
(-9.99818 -222.266 -20.6666)
(-0.932705 -238.198 -38.3298)
(2.68271 -241.28 -44.9644)
(1.84507 -738.009 -35.1755)
(-0.699013 -734.004 -31.9475)
(-4.30582 -722.804 -25.9696)
(-7.36322 -698.759 -20.9585)
(-6.78656 -665.356 -16.3111)
(-2.64944 -647.117 -9.76566)
(1.22774 -653.854 -3.34355)
(2.95912 -669.03 -1.57679)
(4.48542 -685.786 -5.49255)
(6.72328 -707.693 -12.2156)
(6.87111 -731.049 -18.951)
(2.97746 -746.677 -23.6945)
(-2.67808 -751.486 -24.7082)
(-6.03171 -745.483 -21.1143)
(-4.69583 -737.741 -13.5621)
(0.551485 -745.234 -4.45031)
(6.39421 -763.944 2.2669)
(8.96845 -772.492 5.16107)
(6.5317 -755.876 7.79983)
(2.23119 -741.911 12.0195)
(0.267091 -751.626 11.4568)
(1.0541 -769.31 3.23811)
(2.63801 -791.782 -4.67266)
(3.05616 -817.715 -4.98181)
(2.72237 -840.424 0.801451)
(3.76956 -856.674 6.56153)
(6.76171 -870.006 9.50289)
(8.30413 -877.457 7.61164)
(3.96586 -872.273 0.715208)
(-4.3233 -851.952 -4.87173)
(-9.37537 -820.456 -2.12524)
(-8.30486 -793.984 7.49559)
(-3.84928 -783.863 16.192)
(0.698704 -791.814 19.1458)
(0.499353 -808.443 18.8741)
(-6.14675 -808.622 13.8645)
(-11.1373 -773.26 0.419255)
(-8.13759 -733.034 -15.1609)
(-1.38137 -724.336 -26.5995)
(2.36224 -733.223 -33.4282)
(1.00972 -307.435 -11.3735)
(0.0884508 -312.349 -12.2896)
(-1.38847 -306.425 -10.5953)
(-2.79258 -284.079 -9.45779)
(-2.73537 -254.179 -9.2743)
(-0.960564 -235.882 -7.29888)
(0.91352 -234.15 -3.19561)
(1.34498 -238.909 0.869404)
(1.26638 -248.448 2.79947)
(1.93066 -268.386 1.44258)
(2.10688 -295.707 -3.05287)
(0.500519 -318.591 -9.19914)
(-2.0292 -327.907 -13.338)
(-3.46794 -319.495 -13.2775)
(-2.69714 -301.996 -9.90106)
(0.195432 -292.514 -5.60046)
(4.34945 -300.03 -3.31979)
(7.682 -314.857 -4.38647)
(6.59674 -316.808 -4.25421)
(0.716383 -309.427 1.81022)
(-4.05211 -325.442 7.7767)
(-4.34727 -363.464 6.06598)
(-2.60256 -402.242 0.924437)
(-0.878332 -428.342 -0.658203)
(0.386139 -435.158 1.73992)
(1.63921 -434.206 5.46665)
(4.4741 -446.392 9.18466)
(7.83561 -469.283 9.93712)
(6.63122 -474.116 4.33275)
(0.211286 -453.334 -3.64638)
(-5.3132 -425.365 -6.59496)
(-6.17444 -405.683 -3.04134)
(-3.62241 -398.256 2.04374)
(0.410733 -401.37 4.70922)
(2.3464 -404.704 7.04023)
(-0.796026 -385.42 8.19032)
(-4.73074 -344.806 4.81024)
(-4.1718 -309.841 -0.843401)
(-0.90936 -295.605 -4.64528)
(1.03368 -299.029 -7.99102)
(0.122801 -56.0101 -3.23251)
(-0.643555 -59.1474 -5.49424)
(-0.769338 -59.587 -5.16001)
(-0.742076 -52.525 -4.30702)
(-0.661418 -41.1632 -4.71127)
(-0.104605 -34.3565 -4.13866)
(0.849294 -35.0917 -1.05528)
(1.18482 -38.3187 3.07955)
(0.816362 -39.5527 5.3772)
(0.802522 -43.4004 4.49135)
(0.547221 -49.9803 0.965281)
(-1.1385 -54.8394 -4.57384)
(-2.86814 -57.1301 -8.96579)
(-2.77897 -55.2884 -8.388)
(-1.239 -48.5836 -4.63215)
(0.855499 -42.6888 -0.949628)
(3.57199 -47.0848 0.225783)
(6.82331 -61.4216 -2.8166)
(7.26244 -68.7972 -6.18078)
(1.21597 -58.6929 -1.57776)
(-6.62338 -52.8371 8.20443)
(-8.81559 -69.9669 11.5979)
(-5.62907 -91.4603 7.5704)
(-1.00567 -96.662 2.85701)
(2.16842 -85.2995 0.84245)
(2.46497 -71.5066 1.09165)
(2.23542 -71.8362 3.18979)
(4.58757 -96.7798 5.906)
(5.85513 -123.411 3.90147)
(1.8269 -122.303 -3.02393)
(-3.3255 -104.849 -7.26116)
(-4.84432 -91.2614 -5.49568)
(-3.28709 -85.0039 -1.56764)
(-0.147174 -85.9763 0.282877)
(2.47385 -93.8048 2.06925)
(1.43267 -92.6918 4.79191)
(-1.53796 -76.4151 4.76164)
(-1.86726 -60.5656 2.31479)
(0.0379773 -54.3259 0.54388)
(0.893488 -54.21 -0.697657)
(0.36162 -5.79235 -0.829919)
(-0.371784 -3.95469 -2.86243)
(-0.459966 -2.08748 -3.42245)
(-0.243513 -0.0869017 -2.4981)
(-0.227028 2.46129 -2.43265)
(-0.13925 3.79734 -2.21314)
(0.326211 2.01394 -0.126988)
(0.69286 -1.79816 2.92029)
(0.551292 -3.88807 4.78169)
(0.484565 -5.04658 3.93287)
(0.553968 -7.25094 1.22592)
(-0.401152 -6.22087 -2.18973)
(-2.00942 0.34083 -5.85194)
(-2.25825 7.01839 -6.51237)
(-0.959685 10.5235 -3.13364)
(0.351585 11.0328 0.718359)
(1.62192 4.473 2.49535)
(4.51624 -11.9507 0.419948)
(6.93668 -26.979 -4.56133)
(3.05711 -23.6614 -3.96937)
(-5.47525 -8.28646 5.82323)
(-9.67342 -3.17473 13.0284)
(-6.29025 -6.42916 10.4778)
(0.0584545 -1.38358 3.78439)
(3.97216 7.35232 -0.295091)
(3.57178 8.51018 -0.922925)
(0.91779 7.87709 -0.291216)
(0.441205 -0.453967 1.65983)
(2.8856 -24.7047 3.08979)
(2.82621 -38.443 -0.209161)
(-0.866093 -27.4039 -4.45213)
(-3.33756 -10.721 -4.03448)
(-2.86493 -1.61027 -0.841642)
(-0.850689 -0.290462 0.790983)
(1.32646 -7.50985 1.43466)
(1.5795 -15.3583 3.45699)
(-0.24614 -11.5667 4.10688)
(-1.09963 -3.64715 2.14192)
(-0.0549348 -2.19162 0.480127)
(0.79575 -5.09179 0.0936601)
(0.286168 0.980643 -0.228294)
(-0.0587115 1.59104 -1.08516)
(-0.16144 3.26096 -1.99604)
(-0.0411336 4.20598 -1.54893)
(-0.0637761 4.9481 -1.23664)
(-0.175032 5.82607 -1.19697)
(-0.0223082 5.38158 -0.0736151)
(0.259266 3.31548 1.66634)
(0.306353 1.41518 2.81309)
(0.279066 0.739002 2.49628)
(0.352209 -0.536112 0.865895)
(0.0411836 -1.37878 -0.88982)
(-0.766548 2.10371 -2.59441)
(-1.14806 8.58039 -3.61853)
(-0.60371 12.4579 -2.47117)
(-0.0933855 13.0945 -0.0333242)
(-0.0287159 10.6618 1.77712)
(1.85836 0.62184 1.31783)
(5.35844 -15.783 -2.54392)
(4.11794 -21.0792 -4.46633)
(-3.35258 -10.4317 2.44426)
(-8.4192 1.43185 10.6712)
(-5.26405 9.925 9.15858)
(1.16433 18.1631 2.16181)
(3.61831 17.7349 -1.46267)
(2.43691 8.74612 -1.08676)
(0.88888 3.25649 -0.322185)
(-0.373395 5.82027 -0.18763)
(-0.122772 1.38269 0.795786)
(1.2765 -12.4684 0.895978)
(1.00644 -15.382 -1.35566)
(-0.732579 -4.77702 -2.34189)
(-1.60495 6.03112 -0.603954)
(-1.05036 10.5071 0.914063)
(0.0996387 7.85096 1.01587)
(0.746128 0.931034 1.92691)
(0.265819 -0.885275 2.85206)
(-0.395626 3.39496 1.62344)
(-0.191426 5.42743 0.0493472)
(0.307809 3.19508 -0.313041)
(0.076473 1.26814 -0.194211)
(0.0122182 1.00316 -0.307534)
(-0.0133345 1.59758 -0.799883)
(0.0436367 1.88163 -0.720676)
(0.0519371 1.96422 -0.509753)
(-0.056359 2.43294 -0.651617)
(-0.096171 2.95428 -0.245152)
(0.0134029 2.38512 0.630605)
(0.106122 1.35206 1.22858)
(0.149492 0.821122 1.2424)
(0.188096 0.237612 0.577658)
(0.0350953 -0.526917 -0.336025)
(-0.319386 0.135864 -1.02553)
(-0.482294 2.60409 -1.50858)
(-0.172134 4.95805 -1.30742)
(0.0697187 5.74246 -0.377487)
(-0.484874 6.52632 0.709169)
(-0.0380356 4.4827 0.980896)
(3.13678 -6.64501 -1.1738)
(3.9244 -17.2609 -3.15341)
(-1.58393 -13.9958 0.652448)
(-6.08544 -1.72521 6.2907)
(-3.34079 11.5228 5.02887)
(1.37014 16.4528 0.425081)
(2.28887 10.2377 -1.18724)
(1.0451 3.78549 -0.700804)
(0.38638 0.0992963 -0.0687087)
(0.183519 -0.277643 -0.012154)
(-0.14255 2.4426 -0.104596)
(-0.0750058 0.487173 0.320251)
(0.344362 -4.76709 0.0780435)
(0.303143 -4.97161 -0.827996)
(-0.204072 -0.288094 -0.771731)
(-0.497564 4.12609 0.144376)
(-0.295264 5.08961 0.437388)
(0.0703273 2.82013 0.691859)
(0.150752 0.662182 1.3429)
(-0.0196871 1.51043 1.08113)
(-0.0772743 2.9412 0.135381)
(0.0341918 2.46552 -0.29231)
(0.0131051 0.601899 -0.139518)
(0.000344747 0.478942 -0.125417)
(0.000296171 0.557331 -0.269213)
(0.0239853 0.568529 -0.260403)
(0.0353614 0.338424 -0.130034)
(0.0122575 0.365756 -0.249973)
(-0.0242802 0.683021 -0.206265)
(-0.0382402 0.834284 0.122453)
(0.0118164 0.542629 0.375674)
(0.0678302 0.251586 0.495029)
(0.0974631 -0.0493641 0.320006)
(0.021302 -0.352681 -0.073259)
(-0.181717 -0.167019 -0.447433)
(-0.244962 0.752654 -0.594612)
(-0.0157764 1.61349 -0.539053)
(0.205866 1.55141 -0.27414)
(-0.235346 1.96542 0.186351)
(-0.600284 3.88778 0.590612)
(1.20528 0.270707 -0.359314)
(2.65602 -10.2522 -1.73965)
(-0.403982 -12.47 -0.0222706)
(-3.51659 -2.07794 2.87175)
(-1.79877 8.92783 2.12353)
(0.883865 9.7366 -0.0970538)
(1.20242 4.51698 -0.577312)
(0.537356 1.41147 -0.264017)
(0.121864 0.592884 -0.0738257)
(0.0412302 -0.181535 0.00897787)
(0.0334786 -0.286678 -0.0254759)
(-0.0367605 0.542544 -0.0212437)
(-0.0253872 0.129365 0.0909759)
(0.062924 -1.18101 -0.0491364)
(0.0838414 -1.40649 -0.27356)
(-0.0235338 -0.12595 -0.169122)
(-0.122662 1.17431 0.0366653)
(-0.0763422 1.28757 0.131976)
(0.0137107 0.663448 0.397426)
(0.0248265 0.491844 0.469198)
(-0.0107168 0.770048 0.144884)
(-0.00109594 0.858317 -0.102911)
(-0.00137602 0.160793 -0.0386757)
(0.00353243 0.152382 -0.070167)
(0.00518733 0.15691 -0.105737)
(-0.00303942 0.154387 -0.0817678)
(0.00853207 0.0518998 -0.0201534)
(0.0132056 0.00160341 -0.0335543)
(0.000633747 0.00382309 -0.0573528)
(-0.0124793 0.112279 -0.0023179)
(-0.0137639 0.167575 0.06061)
(0.026225 0.048611 0.128597)
(0.0630296 -0.122474 0.127095)
(0.0103439 -0.313204 -0.0199329)
(-0.0876928 -0.169518 -0.182984)
(-0.110692 0.380495 -0.200307)
(-0.0106079 0.68277 -0.168673)
(0.133906 0.384523 -0.110656)
(0.00916585 0.0201308 0.0012112)
(-0.356814 1.63255 0.255699)
(0.190532 2.22722 0.0300231)
(1.22071 -3.85877 -0.726763)
(0.112715 -7.74257 -0.242604)
(-1.59016 -1.40823 1.06337)
(-0.871624 5.23003 0.833887)
(0.439012 4.85955 -0.075745)
(0.548956 2.12215 -0.232794)
(0.224526 0.5651 -0.0978285)
(0.0593274 0.0683535 -0.0385872)
(0.0025497 0.0942016 -0.0210872)
(0.000314627 -0.0623262 0.0188224)
(0.0136116 -0.0539802 -0.0190847)
(-0.000819244 0.108587 -0.000457319)
(-0.013713 0.0600495 0.0158706)
(0.000835958 -0.180104 -0.0203242)
(0.0275648 -0.316747 -0.0582726)
(0.00138683 -0.0627256 -0.0167543)
(-0.0281351 0.235391 0.00535804)
(-0.0121042 0.268509 0.0458851)
(-0.000585032 0.167098 0.119199)
(-0.00262763 0.155308 0.0601751)
(0.000434744 0.216265 -0.0182793)
(-0.00108397 0.0553149 -0.019405)
(-0.00093986 0.0578247 -0.0162391)
(0.000280878 0.0401684 -0.0179214)
(0.000995283 0.0372408 -0.0169259)
(0.000615889 0.053539 -0.0140682)
(0.000349211 0.00287537 -0.00277776)
(0.000320551 -7.55373e-05 -0.00976039)
(-0.000689501 0.000444389 -0.000317002)
(-0.00116783 0.0505746 -0.017836)
(0.000899853 0.0552257 0.0400276)
(0.0121592 -0.0574446 0.0319331)
(0.0108834 -0.148012 0.00133347)
(-0.0210734 -0.088798 -0.0595027)
(-0.0495397 0.105377 -0.0556482)
(-0.0153235 0.287626 -0.0383786)
(0.0505617 0.141426 -0.0239746)
(0.0458437 -0.191078 -0.0221325)
(-0.0833951 0.176666 0.0559812)
(-0.0382999 1.18695 0.0512659)
(0.355978 -0.666273 -0.189397)
(0.144345 -3.37287 -0.166895)
(-0.529902 -0.84231 0.314748)
(-0.355362 2.44439 0.299596)
(0.166606 2.15802 -0.0207951)
(0.215343 0.848683 -0.0780309)
(0.065324 0.185789 -0.0394465)
(0.0126821 0.0562849 -0.0217028)
(0.0131447 -8.96265e-05 -0.00123069)
(0.0005211 0.0522937 -0.00018428)
(-5.50954e-06 -0.00113701 0.000158429)
(7.32929e-05 -0.00311752 -0.000153133)
(-3.60674e-05 0.00222477 0.000113633)
(-0.000100213 0.0526934 0.000298827)
(-4.90554e-06 -0.00121516 -0.000205293)
(9.04351e-05 -0.0595215 6.9275e-06)
(1.98873e-05 -0.00682792 0.000111888)
(-0.00038542 0.0550236 -0.0184756)
(-0.000342858 0.0422442 0.00167907)
(0.000521054 0.0572585 0.0211067)
(9.24401e-05 0.0531939 0.00164802)
(-0.000150726 0.000777841 9.60099e-05)
(-0.00011022 0.00336325 -0.0185345)
(0.00011542 0.00419783 -0.0202163)
(0.000167124 0.00237024 -0.00258864)
(3.57554e-05 0.000593479 -0.000826435)
(2.75637e-06 0.000113194 -0.0002213)
(7.10565e-06 -0.000693295 -6.62238e-05)
(3.04106e-05 -0.00106648 -0.00012311)
(-0.000217705 0.00185812 -0.000320266)
(-0.000435124 0.00320288 0.000116554)
(0.0132031 -0.002431 0.00905038)
(0.00178652 -0.035832 0.000838959)
(-0.0259029 -0.0398161 -0.00205965)
(-0.0149739 0.029417 -0.0209788)
(-0.000343772 0.134831 -0.020124)
(0.0127584 0.087675 -0.00130086)
(0.0149134 -0.0449887 -0.00141032)
(-0.0115502 -0.0751144 0.01783)
(-0.0142734 0.258361 0.0407219)
(0.0740957 0.0168459 -0.0145759)
(0.0616997 -0.986666 -0.0367472)
(-0.122893 -0.398549 0.0658496)
(-0.111687 0.837335 0.071683)
(0.0346181 0.786635 -0.0175122)
(0.0488233 0.234725 -0.0172113)
(0.0261956 0.0423794 -0.0208445)
(0.0137692 0.0480688 -0.00110928)
(0.00036758 0.00207395 -4.03755e-05)
(9.19648e-06 -0.000222794 -7.37875e-07)
(5.87983e-07 0.000157411 -1.14982e-06)
(-3.61765e-07 -0.000202201 8.58389e-07)
(1.43449e-07 -0.000113014 -5.65371e-07)
(4.16425e-07 -6.91344e-05 -1.71282e-06)
(7.4171e-08 0.000256716 1.72763e-06)
(-4.78691e-07 -5.10184e-05 -4.84005e-06)
(7.37628e-07 -7.6972e-05 4.15749e-05)
(-1.49844e-05 -0.000124102 7.21591e-06)
(-4.1688e-06 0.00133918 6.24893e-05)
(1.44784e-05 0.00113881 0.000590175)
(-5.67357e-05 -0.000576933 0.000869401)
(-1.5715e-06 0.000201056 -0.000196782)
(-2.3967e-06 0.000505459 -0.000445399)
(8.48329e-07 0.000568485 -0.00058174)
(2.48743e-06 0.000120096 -0.000134426)
(5.89407e-07 1.09543e-05 -1.12241e-05)
(5.05389e-08 8.36375e-07 -1.43195e-06)
(1.7408e-08 1.76245e-06 -4.15653e-07)
(-6.06447e-07 -2.28996e-05 3.72567e-06)
(1.13459e-05 -0.000100027 -4.03356e-05)
(-0.00024528 0.000707962 -3.23796e-05)
(0.000367746 0.00127712 5.28342e-06)
(0.000638548 -0.0432715 -0.000145656)
(-0.00104316 -0.00462677 -0.00048001)
(-0.000856655 0.0427821 -0.0004952)
(0.000557839 0.0452513 -0.000149636)
(0.000666581 0.044249 -3.79741e-05)
(0.000332382 0.00285203 8.9233e-05)
(-6.19473e-05 -0.00545674 9.97167e-05)
(-0.0132708 0.0414963 -0.000102442)
(0.0126089 0.0381361 -0.000512407)
(0.0285979 -0.202544 -0.00162366)
(-0.0262366 -0.158901 0.0197932)
(-0.0259368 0.199478 0.00404765)
(-5.09301e-05 0.205144 -8.73098e-05)
(0.009877 0.0843385 -0.0200288)
(0.0135204 0.0458708 -0.00119706)
(0.000505906 0.00122532 -4.58251e-05)
(1.76597e-05 2.97639e-05 -1.66966e-06)
(6.29993e-07 2.75565e-06 -6.51507e-08)
(2.10292e-08 -7.70867e-07 2.84487e-09)
(2.11656e-09 7.9731e-07 -3.53339e-09)
(-2.56364e-10 4.38487e-07 2.31836e-09)
(-1.38328e-09 3.17944e-07 1.00221e-08)
(-4.12683e-10 -9.53278e-07 -1.4024e-08)
(1.5865e-09 6.99998e-08 3.75648e-08)
(1.59957e-09 6.4659e-07 -1.45223e-07)
(-2.77399e-08 -2.39403e-06 -1.19158e-09)
(-3.39759e-08 5.07033e-05 -1.62711e-07)
(1.57727e-07 1.15233e-05 5.49869e-06)
(-1.09039e-07 2.38089e-06 -6.51004e-05)
(-9.53179e-09 4.28412e-07 -8.64152e-07)
(-2.68614e-08 4.35899e-06 -3.79825e-06)
(2.11145e-09 7.67494e-06 -6.84843e-06)
(2.54283e-08 1.79169e-06 -1.59285e-06)
(6.52363e-09 1.53351e-07 -1.26909e-07)
(5.8435e-10 9.58457e-09 -7.47946e-09)
(-1.16245e-10 5.51515e-10 1.46272e-09)
(2.62816e-09 -4.31398e-08 -2.60945e-08)
(-3.00733e-08 1.83696e-06 2.16532e-07)
(1.32578e-07 -3.43947e-05 1.64489e-07)
(6.20328e-06 0.000744319 2.8534e-09)
(-4.47617e-05 -0.00114575 -1.67997e-07)
(-5.43726e-05 -0.00120168 -2.90404e-06)
(3.86812e-05 0.00199532 -3.96833e-06)
(4.72418e-05 0.0014026 -1.11072e-06)
(6.34796e-06 0.000321217 -2.23791e-07)
(5.92105e-06 -0.000613099 6.34266e-07)
(2.40428e-05 -0.000683145 6.41633e-07)
(2.42396e-05 -0.000418917 1.32349e-06)
(-0.000144162 0.0394929 3.70776e-06)
(4.11659e-05 -0.0386243 -7.90395e-05)
(-0.000112796 -0.0470588 4.29453e-05)
(-0.000319744 0.0407571 -2.59251e-05)
(0.000178969 0.0313564 -0.000407161)
(0.00024768 0.0409629 -0.000247867)
(5.35349e-05 0.00153274 -1.4877e-05)
(1.6971e-06 5.35129e-05 -5.92849e-07)
(8.59529e-09 1.91263e-06 -2.00808e-08)
(-1.91704e-09 6.17567e-08 -6.33094e-10)
(-1.31593e-10 5.19023e-09 -3.32534e-11)
(-9.66338e-12 -1.93319e-09 8.52651e-12)
(-2.84217e-13 -1.21765e-09 -7.67386e-12)
(4.26326e-12 -1.15649e-09 -5.6275e-11)
(1.13687e-12 2.96988e-09 1.00613e-10)
(-5.11591e-12 9.37732e-11 -2.18705e-10)
(1.13687e-12 -1.83302e-09 4.37836e-10)
(-2.24532e-11 -4.74848e-09 1.2065e-10)
(-2.04921e-10 8.21272e-08 -1.87882e-09)
(8.87326e-10 9.80342e-08 2.97268e-08)
(1.05871e-09 -3.9504e-07 -2.26201e-07)
(-2.44427e-11 -2.34236e-09 -2.13461e-09)
(-1.69393e-10 2.37683e-08 -2.20649e-08)
(-2.52953e-11 7.12737e-08 -5.874e-08)
(1.57172e-10 1.79716e-08 -1.33359e-08)
(4.60432e-11 1.58419e-09 -9.57527e-10)
(4.26326e-12 9.19684e-11 -3.96483e-11)
(5.68434e-13 -1.71466e-11 -1.62004e-11)
(-5.68434e-12 4.12299e-10 1.52625e-10)
(5.91172e-11 -7.22496e-09 -8.80362e-10)
(-3.7943e-10 8.28952e-08 -7.2049e-10)
(6.77005e-09 -3.70883e-07 -7.41807e-11)
(-1.52276e-07 -1.69263e-05 4.745e-10)
(-3.76284e-07 0.000122337 -1.4056e-08)
(8.41226e-08 0.000132074 -3.09163e-08)
(3.5925e-07 1.62842e-05 -8.87695e-09)
(6.9349e-08 2.62351e-06 -1.75135e-09)
(1.79875e-08 -1.10381e-06 4.39115e-09)
(-6.29444e-08 -1.36085e-05 2.91394e-09)
(-1.90196e-07 -6.7051e-05 -6.18471e-09)
(6.58031e-07 -8.01264e-05 -4.59865e-08)
(8.99391e-08 0.00032844 4.87814e-07)
(-1.05226e-06 -0.000192992 -8.04178e-09)
(-9.37082e-07 0.000637486 -1.23887e-07)
(2.55644e-07 0.000683573 -2.79732e-06)
(1.01995e-06 0.000146775 -1.78488e-06)
(2.00331e-07 4.64593e-06 -1.32097e-07)
(9.58579e-09 2.31013e-08 -6.14378e-09)
(3.89377e-10 -5.28649e-09 -2.44711e-10)
(1.76215e-11 -3.58814e-10 -9.37916e-12)
(5.68434e-13 -2.28223e-11 -8.52651e-13)
(5.68434e-13 1.48548e-12 2.36611e-21)
(2.84217e-13 3.82366e-12 4.26326e-13)
(-2.84217e-13 2.33818e-12 4.26326e-13)
(2.84217e-13 -7.23444e-12 1.27898e-12)
(2.84217e-13 -7.06091e-13 1.27898e-12)
(-2.84217e-13 6.86793e-12 -1.27898e-12)
(1.25624e-27 -2.48478e-12 -4.26326e-13)
(-5.68434e-13 6.70278e-11 -1.02318e-11)
(3.41061e-12 5.59311e-10 1.30456e-10)
(8.81073e-12 -2.36536e-09 -7.94671e-10)
(5.68434e-13 -1.91309e-11 -8.52651e-13)
(-2.84217e-13 5.23836e-11 -7.5886e-11)
(1.31318e-28 4.00993e-10 -3.44471e-10)
(2.84217e-13 1.14586e-10 -6.94911e-11)
(-8.52651e-13 1.05914e-11 -4.26326e-12)
(-2.62637e-28 6.39684e-13 1.18305e-21)
(5.68434e-13 0 0)
(2.84217e-13 -1.27937e-12 -8.52651e-13)
(-2.84217e-13 1.41882e-11 2.98428e-12)
(8.52651e-13 -1.47573e-10 1.7053e-12)
(8.81073e-12 9.58299e-10 8.52651e-13)
(-2.93312e-10 -1.69652e-08 2.55795e-12)
(-2.50253e-09 3.79195e-07 -5.79803e-11)
(-4.3741e-10 9.17234e-07 -2.36184e-10)
(2.37634e-09 1.70087e-07 -7.5886e-11)
(7.29585e-10 2.53222e-08 -1.40687e-11)
(1.30456e-10 -2.01236e-09 2.17426e-11)
(7.95808e-11 -1.93326e-08 5.54223e-12)
(7.83871e-10 1.54381e-07 7.24754e-12)
(-2.08445e-09 4.53356e-07 2.57927e-10)
(-7.79323e-10 -1.48087e-06 -1.72449e-09)
(1.13147e-09 2.2974e-07 -8.44125e-11)
(-4.29679e-09 1.13356e-06 1.21503e-10)
(-1.3415e-10 2.55672e-06 -1.68957e-08)
(4.20698e-09 4.9841e-07 -1.23724e-08)
(1.00357e-09 2.38414e-08 -1.18476e-09)
(7.16227e-11 9.6924e-10 -6.90648e-11)
(3.97904e-12 4.5057e-11 -2.98428e-12)
(8.52651e-13 2.18468e-12 -8.52651e-13)
(-2.84217e-13 2.11827e-12 -4.26326e-13)
(-2.39814e-27 7.06091e-13 4.26326e-13)
(2.52435e-27 7.06091e-13 -8.52651e-13)
(2.84217e-13 1.27937e-12 0)
(1.92162e-26 8.38907e-13 -3.54915e-21)
(-1.16436e-26 -6.64078e-14 4.26326e-13)
(5.68434e-13 -5.06868e-13 4.26326e-13)
(-5.68434e-13 2.05187e-12 -1.7053e-12)
(1.26941e-27 0 -4.26326e-13)
(1.26941e-27 9.05315e-13 -4.26326e-13)
(-2.84217e-13 -9.11278e-12 -4.26326e-12)
(2.84217e-13 -5.19359e-13 -1.18305e-21)
(-2.84217e-13 -1.85889e-12 8.52651e-13)
(-2.84217e-13 1.2192e-12 -3.54916e-21)
(-5.15527e-28 -1.33953e-12 -8.52651e-13)
(2.84217e-13 5.79521e-13 0)
(0 1.79873e-12 4.26326e-13)
(-2.84217e-13 -5.79521e-13 -4.26326e-13)
(3.17247e-28 -1.20324e-13 2.3661e-21)
(2.84217e-13 -6.01622e-14 4.26326e-13)
(5.68434e-13 0 0)
(-2.84217e-13 -3.01793e-12 -2.36611e-21)
(-5.68434e-13 -1.93108e-11 -4.26326e-13)
(-1.47793e-11 6.57015e-10 -1.18305e-21)
(-7.10543e-12 5.60881e-09 -1.7053e-12)
(1.42109e-11 1.64056e-09 2.72102e-20)
(7.10543e-12 2.64588e-10 -4.26326e-13)
(8.52651e-13 0 4.26326e-13)
(0 -2.82664e-11 0)
(-2.55795e-12 -1.79691e-10 1.18305e-21)
(4.54747e-12 -1.79479e-09 -4.26326e-13)
(2.27374e-12 4.51329e-09 2.98428e-12)
(-6.53699e-12 -4.03001e-11 4.26326e-13)
(-2.10321e-11 1.96475e-09 4.68958e-12)
(-4.26326e-12 9.62598e-09 -1.01039e-10)
(2.07478e-11 2.26577e-09 -8.52651e-11)
(6.25278e-12 1.62939e-10 -9.80549e-12)
(5.68434e-13 8.95557e-12 4.26326e-13)
(-2.84217e-13 1.27937e-12 4.26326e-13)
(2.84217e-13 5.19359e-13 8.52651e-13)
(5.11182e-27 -5.79521e-13 -1.27898e-12)
(7.50996e-27 5.79521e-13 8.52651e-13)
(5.68434e-13 0 -1.18305e-21)
(-2.84217e-13 6.99846e-13 -8.52651e-13)
(-2.84217e-13 -1.27937e-12 0)
(-2.84217e-13 6.39684e-13 4.26326e-13)
(5.68434e-13 -1.33953e-12 8.52651e-13)
(2.84217e-13 6.01622e-14 -2.36611e-21)
(-1.13687e-12 0 4.26326e-13)
(-2.84217e-13 -1.80487e-13 1.27898e-12)
(8.52651e-13 -6.01622e-14 2.3661e-21)
(-2.84217e-13 -1.09008e-13 4.26326e-13)
(5.68434e-13 -5.45039e-14 4.26326e-13)
(2.84217e-13 5.45039e-14 -1.18306e-21)
(1.43705e-28 1.10454e-12 -4.26326e-13)
(5.68434e-13 5.45039e-14 -8.52651e-13)
(-5.68434e-13 1.09008e-13 -4.26326e-13)
(-2.84217e-13 -5.79521e-13 1.18305e-21)
(5.68434e-13 6.34025e-13 4.26326e-13)
(-2.84217e-13 5.45039e-14 -4.26326e-13)
(-5.68434e-13 0 -4.26326e-13)
(2.84217e-13 -6.88529e-13 4.26326e-13)
(1.26218e-27 6.34025e-13 -4.26326e-13)
(-5.68434e-13 -5.45039e-14 1.27898e-12)
(2.84217e-13 2.96101e-11 1.18305e-21)
(5.68434e-13 1.50131e-11 -1.18305e-21)
(0 1.26805e-12 4.26326e-13)
(2.84217e-13 0 -4.26326e-13)
(-2.84217e-13 6.34025e-13 -2.36611e-21)
(-8.52651e-13 -5.45039e-14 1.18305e-21)
(2.84217e-13 5.68621e-12 1.18305e-21)
(-1.90409e-27 -8.74732e-12 4.26326e-13)
(-2.84217e-13 5.25017e-13 1.18305e-21)
(0 4.52716e-12 -4.26326e-13)
(0 4.34096e-11 -4.26326e-13)
(5.68434e-13 1.322e-11 8.52651e-13)
(2.84217e-13 6.88529e-13 4.26326e-13)
(-2.84217e-13 5.25017e-13 8.52651e-13)
(2.84217e-13 5.25017e-13 4.26326e-13)
(1.25742e-27 6.34025e-13 4.26326e-13)
(-2.84217e-13 -5.45039e-14 -4.26326e-13)
(2.84217e-13 5.45039e-14 -4.26326e-13)
(0 -5.25017e-13 4.26326e-13)
(-2.84217e-13 -5.79521e-13 0)
(0 0 4.26326e-13)
(0 1.05003e-12 0)
(2.84217e-13 5.45039e-14 -1.27898e-12)
(-6.32303e-27 -5.79521e-13 -1.18305e-21)
(3.59263e-29 0 -4.26326e-13)
(2.51484e-27 6.88529e-13 -2.36611e-21)
(-5.68434e-13 5.79521e-13 -8.52651e-13)
(-2.01794e-27 1.05003e-12 4.26326e-13)
(-2.84217e-13 5.25017e-13 4.26326e-13)
(2.84217e-13 -1.00066e-12 -8.52651e-13)
(-9.76423e-29 5.25017e-13 4.26326e-13)
(-2.84217e-13 -1.00066e-12 4.26326e-13)
(-2.84217e-13 -1.05003e-12 0)
(-6.50949e-28 1.42692e-12 4.26326e-13)
(2.84217e-13 -1.00066e-12 0)
(0 -5.25017e-13 -4.26326e-13)
(2.84217e-13 0 -4.26326e-13)
(0 5.74395e-13 4.26326e-13)
(-2.84217e-13 -5.25017e-13 0)
(-5.68434e-13 1.00066e-12 0)
(2.84217e-13 4.26262e-13 2.3661e-21)
(2.84217e-13 5.25017e-13 8.52651e-13)
(-2.84217e-13 -5.74395e-13 4.26326e-13)
(5.68434e-13 0 -4.26326e-13)
(6.18401e-28 -1.00066e-12 8.52651e-13)
(1.26935e-27 5.25017e-13 -4.26326e-13)
(2.84217e-13 5.74395e-13 4.26326e-13)
(-2.84217e-13 -4.26262e-13 -1.18305e-21)
(0 5.25017e-13 4.26326e-13)
(-1.26935e-27 1.05003e-12 -1.18305e-21)
(0 1.00066e-12 4.26326e-13)
(-2.84217e-13 1.05003e-12 -8.52651e-13)
(-1.00974e-26 -5.74395e-13 1.18305e-21)
(5.68434e-13 -4.26262e-13 4.26326e-13)
(-2.84217e-13 4.93778e-14 -2.3661e-21)
(-2.5387e-27 -1.00066e-12 -4.26326e-13)
(-2.84217e-13 -4.26262e-13 -1.18305e-21)
(-2.84217e-13 -4.93778e-14 0)
(2.84217e-13 -5.25017e-13 4.26326e-13)
(0 0 4.26326e-13)
(5.68434e-13 -4.7564e-13 -4.26326e-13)
(-2.84217e-13 -3.76884e-13 -2.36611e-21)
(-2.84217e-13 -4.93778e-14 -8.52651e-13)
(2.84217e-13 -9.51279e-13 -1.18305e-21)
(-5.68434e-13 4.7564e-13 0)
(0 -5.74395e-13 1.18305e-21)
(5.68434e-13 0 0)
(-6.487e-28 -4.30906e-13 4.26326e-13)
(-5.68434e-13 -4.30906e-13 8.52651e-13)
(2.84217e-13 -4.47339e-14 4.26326e-13)
(1.89327e-28 -4.30906e-13 8.52651e-13)
(-2.84217e-13 3.86172e-13 4.26326e-13)
(8.52651e-13 4.30906e-13 -4.26326e-13)
(-2.84217e-13 9.96013e-13 -4.26326e-13)
(-5.68434e-13 -4.47339e-14 -4.26326e-13)
(2.84217e-13 4.30906e-13 4.26326e-13)
(0 0 0)
(0 -4.47339e-14 4.26326e-13)
(2.84217e-13 0 -4.26326e-13)
(1.23843e-27 4.47339e-14 -1.18305e-21)
(-1.88713e-27 5.20373e-13 -4.26326e-13)
(2.53583e-27 -4.30906e-13 8.52651e-13)
(-2.84217e-13 9.06545e-13 8.52651e-13)
(0 -4.30906e-13 4.26326e-13)
(0 -4.7564e-13 -4.26326e-13)
(0 0 1.18305e-21)
(-2.84217e-13 -4.7564e-13 -4.26326e-13)
(4.42295e-27 -5.20373e-13 0)
(5.68434e-13 -4.30906e-13 0)
(2.84217e-13 0 -1.18305e-21)
(0 -3.86172e-13 -1.18305e-21)
(-2.84217e-13 -8.61811e-13 8.52651e-13)
(-5.68434e-13 4.47339e-14 -1.18305e-21)
(3.71528e-27 -8.94677e-14 8.52651e-13)
(-2.47685e-27 -4.7564e-13 1.18305e-21)
(-2.84217e-13 3.86172e-13 4.26326e-13)
(2.84217e-13 -5.20373e-13 1.18305e-21)
(2.84217e-13 9.06545e-13 -4.26326e-13)
(0 0 0)
(-2.84217e-13 4.30906e-13 0)
(-2.84217e-13 -4.47339e-14 -4.26326e-13)
(2.84217e-13 -1.42692e-12 1.27898e-12)
(1.23843e-27 4.47339e-14 0)
(2.84217e-13 -5.20373e-13 -4.26326e-13)
(2.84217e-13 4.47339e-14 -1.18305e-21)
(-2.84217e-13 9.06545e-13 -4.26326e-13)
(2.84217e-13 0 -4.26326e-13)
(-2.84217e-13 -4.30906e-13 4.26326e-13)
(3.20558e-28 -4.30906e-13 -8.52651e-13)
(2.84217e-13 4.05266e-14 -1.18305e-21)
(2.84217e-13 -4.30906e-13 -1.27898e-12)
(2.84217e-13 8.10533e-14 -8.52651e-13)
(0 -3.49852e-13 8.52651e-13)
(-2.84217e-13 -1.21166e-12 8.52651e-13)
(6.41116e-28 8.21285e-13 0)
(-9.61674e-28 4.05266e-14 -4.26326e-13)
(9.61674e-28 -3.90379e-13 -1.27898e-12)
(0 4.05266e-14 8.52651e-13)
(-2.84217e-13 0 0)
(-2.84217e-13 -4.30906e-13 -1.27898e-12)
(0 3.49852e-13 4.26326e-13)
(5.68434e-13 3.49852e-13 4.26326e-13)
(-2.84217e-13 4.05266e-14 4.26326e-13)
(-2.84217e-13 -4.30906e-13 8.52651e-13)
(2.84217e-13 0 -1.18305e-21)
(0 -3.90379e-13 -8.52651e-13)
(0 -3.90379e-13 4.26326e-13)
(-2.84217e-13 4.05266e-14 -8.52651e-13)
(2.84217e-13 -8.21285e-13 4.26326e-13)
(-7.57306e-27 0 -1.27898e-12)
(-5.68434e-13 -4.71432e-13 4.26326e-13)
(0 3.09326e-13 2.36611e-21)
(5.68434e-13 3.49852e-13 -4.26326e-13)
(2.84217e-13 4.71432e-13 1.06853e-28)
(2.51104e-27 -3.90379e-13 -8.52651e-13)
(1.28223e-27 8.61811e-13 -1.18305e-21)
(0 4.05266e-14 -4.26326e-13)
(-1.28223e-27 4.05266e-14 -1.18305e-21)
(0 -3.90379e-13 0)
(2.51104e-27 4.30906e-13 4.26326e-13)
(-5.68434e-13 4.05266e-14 0)
(-2.84217e-13 7.80758e-13 1.27898e-12)
(2.84217e-13 -4.05266e-14 4.26326e-13)
(2.84217e-13 4.30906e-13 8.52651e-13)
(2.84217e-13 -4.05266e-14 -4.26326e-13)
(-2.51104e-27 -3.49852e-13 1.06853e-28)
(-2.84217e-13 3.90379e-13 4.26326e-13)
(-5.68434e-13 -3.53664e-13 -4.26326e-13)
(-2.84217e-13 7.07328e-13 -4.26326e-13)
(2.84217e-13 3.16949e-13 8.52651e-13)
(3.38811e-28 0 0)
(-2.84217e-13 -4.27094e-13 2.36611e-21)
(0 -4.27094e-13 -4.26326e-13)
(5.68434e-13 -7.34302e-14 -8.52651e-13)
(2.84217e-13 -3.16949e-13 -4.26326e-13)
(-5.68434e-13 -3.90379e-13 8.52651e-13)
(-1.01643e-27 -3.67151e-14 4.26326e-13)
(2.84217e-13 -3.67151e-14 4.26326e-13)
(0 7.07328e-13 4.26326e-13)
(2.84217e-13 0 -1.18305e-21)
(5.68434e-13 7.80758e-13 8.52651e-13)
(-2.84217e-13 7.34302e-14 -4.26326e-13)
(-8.52651e-13 3.16949e-13 1.7053e-12)
(-6.29221e-28 3.53664e-13 -4.26326e-13)
(1.88766e-27 -3.53664e-13 -4.26326e-13)
(-2.84217e-13 -7.44043e-13 1.18305e-21)
(0 -3.67151e-14 2.3661e-21)
(-2.84217e-13 -3.67151e-14 8.52651e-13)
(5.68434e-13 3.16949e-13 -4.26326e-13)
(5.68434e-13 -7.07328e-13 1.27898e-12)
(2.84217e-13 7.44043e-13 4.26326e-13)
(2.84217e-13 4.63809e-13 4.26326e-13)
(-5.68434e-13 7.80758e-13 -8.52651e-13)
(-5.68434e-13 -3.67151e-14 -4.26326e-13)
(2.84217e-13 3.16949e-13 1.18305e-21)
(5.04871e-27 0 -8.52651e-13)
(-2.84217e-13 -3.67151e-14 -4.26326e-13)
(2.46848e-27 -3.90379e-13 0)
(2.84217e-13 3.16949e-13 -4.26326e-13)
(0 -7.07328e-13 4.26326e-13)
(-5.04871e-27 -3.90379e-13 4.26326e-13)
(2.84217e-13 4.27094e-13 -8.52651e-13)
(-2.84217e-13 7.44043e-13 8.52651e-13)
(2.84217e-13 3.53664e-13 -8.52651e-13)
(-2.84217e-13 3.67151e-14 8.52651e-13)
(-5.04871e-27 -7.80758e-13 -1.27898e-12)
(2.84217e-13 -6.70613e-13 -4.26326e-13)
(8.52651e-13 2.8714e-13 8.52651e-13)
(5.68434e-13 6.65241e-14 4.26326e-13)