/*--------------------------------*- C++ -*----------------------------------*\
| =========                 |                                                 |
| \\      /  F ield         | OpenFOAM: The Open Source CFD Toolbox           |
|  \\    /   O peration     | Version:  5.0                                   |
|   \\  /    A nd           | Web:      www.OpenFOAM.org                      |
|    \\/     M anipulation  |                                                 |
\*---------------------------------------------------------------------------*/
FoamFile
{
    version     2.0;
    format      ascii;
    class       volVectorField;
    location    "50.4676134421789371";
    object      GradTUPL2;
}
// * * * * * * * * * * * * * * * * * * * * * * * * * * * * * * * * * * * * * //

dimensions      [0 -1 -1 1 0 0 0];

internalField   nonuniform List<vector> 
60000
(
(479.185 72.6854 767.551)
(-83.5364 73.1085 567.463)
(-557.553 40.6592 286.295)
(-744.158 -7.5665 -46.1655)
(-527.509 -34.5867 -422.576)
(-81.2097 -12.71 -682.799)
(243.062 0.608924 -634.187)
(490.759 4.85896 -281.171)
(860.414 -0.53583 250.681)
(1130.58 13.6285 678.664)
(1082.19 41.997 803.402)
(760.654 52.1874 649.993)
(424.107 26.2568 346.068)
(323.122 -3.14398 25.3005)
(447.154 -6.50726 -284.064)
(588.913 -7.72819 -605.913)
(673.567 -34.8685 -856.458)
(837.124 -57.5403 -978.907)
(1109.61 -40.9219 -1090.11)
(1478.66 6.37509 -1003.83)
(1948.22 31.8635 -489.542)
(2466.8 33.9877 276.383)
(2769.99 17.0378 826.144)
(2990.36 -38.9132 950.983)
(3375.46 -106.605 767.891)
(3770.46 -139.129 516.101)
(3841.52 -107.101 378.139)
(3369.08 -40.8 388.784)
(2436.98 14.5516 401.277)
(1501.66 30.6211 199.98)
(1196.23 17.0648 -256.73)
(1512.67 14.9769 -703.17)
(1867.66 33.3369 -935.357)
(1815 46.1464 -1041.23)
(1177.43 45.8858 -1120.36)
(234.776 13.9487 -985.291)
(-83.8455 -14.7584 -368.196)
(474.3 -2.06728 414.585)
(936.106 29.2105 829.084)
(883.072 57.9046 876.814)
(425.089 48.9615 177.491)
(315.287 53.0015 75.8041)
(209.1 23.162 -35.7486)
(104.444 -13.5989 -77.1289)
(-30.8947 -34.0508 -84.9961)
(-92.0072 -21.373 -147.19)
(-28.8591 -2.97572 -157.71)
(50.4392 8.84868 -39.6744)
(156.748 -4.51562 161.116)
(330.903 8.21723 325.293)
(446.271 29.9474 349.286)
(416.51 46.2512 267.308)
(258.183 32.4582 126.94)
(102.822 -2.09664 -27.4491)
(103.968 -27.3941 -146.63)
(251.962 -48.5466 -212.1)
(379.59 -66.2576 -221.396)
(372.273 -70.6449 -185.378)
(249.5 -21.8395 -144.124)
(101.653 64.5922 -73.2718)
(4.30561 120.417 114.798)
(95.2125 97.8144 445.3)
(324.316 24.3513 647.578)
(511.495 -70.4363 525.566)
(627.613 -137.1 271.368)
(695.312 -156.802 38.6474)
(720.551 -115.526 -110.921)
(700.365 -43.9597 -167.157)
(599.614 16.1871 -139.445)
(386.3 35.2101 -62.6039)
(149.858 14.0722 -10.0304)
(88.3549 -13.4617 -32.9965)
(221.226 -10.4246 -83.8078)
(422.854 12.0966 -95.7089)
(523.994 34.025 -78.6746)
(370.687 28.8397 -75.2383)
(17.6488 -10.1732 -77.0289)
(-77.342 -34.0634 4.16461)
(196.086 -18.2248 141.737)
(415.155 18.2257 212.019)
(32.1845 11.2655 28.1147)
(49.1403 18.9389 27.2588)
(47.6052 10.0269 5.40674)
(38.7932 -1.92215 -5.39939)
(0.817665 -7.79248 9.39104)
(-51.3937 -8.21986 10.2419)
(-71.2045 -4.16924 -18.102)
(-63.4613 1.76645 -34.0482)
(-66.1884 -0.497591 -22.3725)
(-51.5321 -2.75915 17.7633)
(-15.0395 3.6022 48.9646)
(1.42097 15.0864 50.0075)
(-21.267 17.2255 32.9894)
(-61.8481 5.58474 8.18428)
(-69.939 -8.62702 -8.9067)
(-32.8704 -18.1972 -10.662)
(-5.53476 -23.2884 -6.36584)
(-45.8774 -22.4798 1.24093)
(-138.558 -7.12533 9.23437)
(-233.871 29.8505 16.1964)
(-293.058 65.595 37.4845)
(-296.663 59.0552 114.163)
(-244.466 14.0303 197.355)
(-244.723 -37.7192 162.051)
(-312.177 -63.0634 64.6033)
(-399.653 -60.5972 -27.7264)
(-453.824 -34.4091 -91.1044)
(-430.995 -1.08881 -121.359)
(-343.263 22.6985 -114.83)
(-267.175 28.7438 -68.4093)
(-273.067 18.7219 -1.27716)
(-329.315 1.12239 47.3521)
(-351.104 -9.19665 57.8153)
(-297.767 -4.32659 47.664)
(-165.319 7.50969 36.1574)
(-53.048 14.3208 17.4918)
(-67.2902 4.91412 -22.0948)
(-142.255 -13.2462 -56.1581)
(-123.408 -19.676 -47.6679)
(-28.2172 -8.56141 -4.66216)
(-7.76412 0.751609 3.5717)
(-4.45713 3.18801 8.56865)
(-5.23908 2.12331 5.67138)
(-4.15727 0.0973289 1.06993)
(-2.9129 -0.349673 0.33111)
(-3.23656 -0.170299 0.580851)
(-1.68985 0.0658528 -0.0369941)
(1.38287 0.0497989 0.894998)
(1.94457 -0.0686513 1.13469)
(-1.95767 -0.114762 -0.351044)
(-5.60434 0.0461835 2.42819)
(-5.54204 1.88167 7.13765)
(-8.61389 3.37789 7.04472)
(-14.1122 1.9463 2.77372)
(-14.4967 -0.481992 -1.19123)
(-9.03519 -1.43606 -2.61677)
(-4.2421 -1.14614 -2.39131)
(-3.97519 -0.243647 -1.88892)
(-6.03653 0.419439 -1.18687)
(-18.3586 2.245 0.00803184)
(-40.3767 9.15722 0.0623267)
(-51.8544 13.0765 7.18537)
(-44.0424 4.1581 28.3494)
(-41.8082 -9.72843 32.1992)
(-57.315 -15.3936 16.3741)
(-80.1628 -12.8757 -1.58765)
(-96.3391 -5.66408 -13.67)
(-92.4804 2.71887 -18.7354)
(-71.6539 8.29831 -18.3126)
(-55.8266 8.94924 -13.2352)
(-55.088 6.41343 -4.85215)
(-65.0214 3.06066 3.64593)
(-77.522 -0.0294618 8.72012)
(-83.3548 -1.16141 7.70272)
(-66.0597 0.49002 0.823595)
(-34.939 2.44305 -4.93353)
(-20.0562 1.53269 -5.89034)
(-19.4709 -0.670507 -6.06814)
(-19.9767 -1.87532 -5.90002)
(-15.4287 -1.66226 -3.2064)
(4.04201 1.17191 1.90764)
(-0.972583 -1.12456 -3.64505)
(-0.91916 -1.56024 -5.08367)
(0.7914 -0.699275 -3.23416)
(1.3845 0.228234 -1.16599)
(2.15375 0.474437 -1.60404)
(5.28684 0.52021 -1.40945)
(10.7169 0.569652 3.5852)
(15.758 0.00739388 9.80947)
(18.8433 0.869567 9.74178)
(13.255 0.831824 -0.241606)
(1.65484 -1.92123 -8.63503)
(-2.57966 -3.51443 -8.67455)
(-0.467527 -2.41093 -4.38606)
(0.711003 0.0976829 0.11283)
(-1.70705 1.87563 2.74164)
(-4.52166 2.29367 2.60778)
(-4.08299 1.83131 0.203576)
(4.62094 1.26067 -2.98468)
(25.567 -1.26695 2.01231)
(31.4614 -6.08834 9.8738)
(16.2809 -5.14279 5.68007)
(3.34314 -0.978206 -1.24239)
(-0.038533 0.860092 -1.95312)
(0.884846 1.10555 -0.659342)
(1.10108 0.405698 0.128099)
(-0.973616 -0.291442 0.0324189)
(-1.56005 -0.134572 -0.133304)
(-0.144988 0.0213706 0.0489544)
(-2.02893 -1.06544 0.548713)
(-2.954 -1.79199 0.406373)
(0.42281 -1.18897 -0.633578)
(4.33587 -0.352769 -1.50194)
(5.33059 0.0610046 -1.30935)
(5.18334 0.0476885 -0.662307)
(5.39891 -0.311892 0.718321)
(2.42709 -0.830553 3.37756)
(3.4698 -0.185641 5.22359)
(9.44356 1.47816 6.65192)
(11.2295 2.51948 6.56846)
(5.08223 2.28304 5.91513)
(-0.27796 0.501817 1.34367)
(-3.51484 -1.21969 -3.52525)
(-3.81757 -1.07215 -4.14801)
(-3.4013 -0.20891 -2.19716)
(-2.96621 0.152381 -1.48743)
(-1.42428 0.171111 -1.81654)
(1.53536 0.340213 -0.2543)
(6.00475 0.213293 3.71261)
(11.4753 0.337774 6.97963)
(14.3625 0.86585 5.08568)
(8.13582 -0.729869 -2.55139)
(-2.26793 -3.68838 -7.27308)
(-6.75953 -4.05734 -5.4326)
(-6.62434 -1.10401 -0.306934)
(-6.27031 1.42451 2.82191)
(-5.29097 1.71199 2.18471)
(-4.46099 1.15492 -0.29306)
(-4.61373 0.656337 -4.50047)
(5.6617 -0.165231 -5.31679)
(25.9709 -3.88171 5.54786)
(24.1208 -6.76992 9.70165)
(7.64578 -2.65771 1.42543)
(0.302108 1.54949 -3.01908)
(2.87624 2.84324 -1.11211)
(2.77185 1.58043 -0.101467)
(0.967156 0.49592 -0.225411)
(0.0553548 0.0141422 -0.0815107)
(-0.156594 0.0158224 -0.0695927)
(-4.21849 -0.30674 -0.296407)
(-13.6991 -1.57979 -0.66909)
(-16.1009 -2.27655 -1.59019)
(-8.50772 -1.73464 -2.58105)
(0.551251 -0.795847 -2.92867)
(5.17729 -0.128198 -2.53471)
(6.29898 0.0398779 -1.54639)
(1.32887 -0.423768 1.26813)
(-3.41902 -0.630636 3.89815)
(-0.196175 0.299543 5.13832)
(5.00139 1.7476 6.45025)
(2.09166 0.957989 2.91713)
(1.83888 0.957096 2.2662)
(0.168314 0.0944903 0.232601)
(-1.22199 -0.319217 -1.27799)
(-2.29415 -0.217128 -1.29545)
(-3.02776 -0.0591816 -0.906896)
(-2.68778 -0.0522534 -0.981595)
(-1.52901 0.0190937 -0.785634)
(0.209945 0.0515715 0.339184)
(3.03378 0.0306267 1.76369)
(6.41396 0.247977 2.44748)
(7.37838 0.0143226 1.13516)
(3.28192 -1.49451 -0.815362)
(-2.2247 -2.12057 -1.0566)
(-5.16477 -0.852646 0.627255)
(-4.53029 0.63174 1.59749)
(-1.84732 0.673976 0.579136)
(-0.504212 0.25899 -0.29087)
(-1.49524 0.156564 -1.30484)
(-2.94053 -0.2254 -4.32432)
(7.90703 -1.4102 -1.11554)
(17.819 -3.44871 6.01758)
(11.1674 -2.00824 4.13299)
(5.49297 0.826962 1.30123)
(3.1634 1.40572 1.00822)
(0.715773 0.491964 0.139179)
(0.0401903 0.140088 -0.157465)
(-0.0205445 0.0269167 -0.0813391)
(0.0287763 -0.0438642 0.0662246)
(0.0374674 -0.0111897 0.00909285)
(-2.50441 0.0408993 -0.26704)
(-8.12849 -0.502594 -0.989693)
(-9.66894 -1.15813 -1.56741)
(-5.36323 -1.0821 -1.54598)
(-0.60962 -0.517226 -1.20251)
(1.73878 -0.152414 -0.996129)
(2.38078 -0.0335419 -0.612322)
(-0.213098 -0.280611 0.608566)
(-1.43417 -0.292763 1.59473)
(0.259917 0.234546 2.33607)
(0.227312 0.147155 0.750807)
(0.684393 0.326088 0.758191)
(0.655339 0.223961 0.391805)
(0.320869 0.0616862 -0.0432672)
(-0.221046 0.0157078 -0.241026)
(-0.941804 0.0102043 -0.234743)
(-1.35595 -0.0262594 -0.279969)
(-1.13763 -0.0418433 -0.332316)
(-0.681865 -0.0467154 -0.163409)
(-0.00131871 -0.0531171 0.204781)
(1.29811 0.0225723 0.476783)
(2.56444 0.036022 0.591784)
(2.10347 -0.33077 0.523051)
(-0.0375976 -0.501882 0.544764)
(-1.79448 -0.172638 0.628636)
(-1.57093 0.254123 0.334107)
(-0.333297 0.238806 -0.10708)
(0.0922132 -0.0602643 -0.0687642)
(0.251299 -0.0427714 0.0910847)
(-1.55256 -0.034343 -0.905602)
(-1.61896 -0.717907 -1.98903)
(7.08748 -1.43517 1.81665)
(9.13772 -0.894656 3.7268)
(4.99513 0.491825 2.39375)
(1.24925 0.526733 0.819203)
(0.0512798 0.0966427 0.0347554)
(-0.0128519 0.00124627 -0.0188058)
(-0.0325302 0.00161982 -0.0476116)
(-0.0144674 0.00558487 -0.0160532)
(0.00933902 -0.023305 0.00889994)
(0.0251558 -0.0132681 0.00886576)
(-0.713511 0.0913767 -0.187164)
(-2.42148 -0.0531108 -0.551008)
(-3.00416 -0.347841 -0.642503)
(-1.68983 -0.337915 -0.451584)
(-0.333292 -0.175327 -0.270207)
(0.40394 -0.0861694 -0.234349)
(0.565154 -0.0711388 -0.139427)
(-0.0700753 -0.139342 0.172033)
(-0.225778 -0.0788255 0.49749)
(-0.0222291 -0.00389807 0.130501)
(0.0805525 0.0491336 0.152699)
(0.137248 0.0573084 0.0835959)
(0.0950929 0.0304632 0.00480161)
(0.0380408 0.0211704 -0.026278)
(-0.0444641 0.0205145 -0.0175594)
(-0.197412 0.0130527 -0.00369839)
(-0.275509 -0.00925957 -0.0397536)
(-0.233222 -0.0232775 -0.0601493)
(-0.18356 -0.0272246 -0.00906538)
(0.000330176 -0.0145783 0.0541839)
(0.536993 0.00663077 0.102702)
(0.804193 -0.0240356 0.218054)
(0.208668 -0.0572427 0.330192)
(-0.330058 0.0211287 0.217823)
(-0.232071 0.09466 -0.0638602)
(0.029378 0.103911 -0.180456)
(0.0220117 -0.00847267 -0.0210206)
(0.0466439 -0.0985987 0.0546311)
(0.156194 0.0812936 0.0373785)
(-2.27543 -0.344373 -0.726485)
(0.153352 -0.733033 0.222221)
(4.2154 -0.231858 2.35516)
(2.45627 0.336561 1.59417)
(0.396408 0.173233 0.318443)
(-0.00851364 0.0152246 -0.0145612)
(-0.00726442 -0.00380642 -0.0106849)
(0.00315862 0.00101829 0.00642647)
(-0.00132199 -0.000511744 -0.00162799)
(-0.00273824 0.00286472 -0.00137516)
(0.00606062 -0.00923064 0.00789475)
(0.0134884 -0.00895697 0.0114408)
(-0.0934225 0.0243498 -0.0579153)
(-0.396464 0.00387313 -0.143473)
(-0.541359 -0.0613355 -0.132967)
(-0.330069 -0.0695898 -0.0756617)
(-0.0860699 -0.0503763 -0.03668)
(0.0689072 -0.0350088 -0.0338531)
(0.0877479 -0.0384352 -0.0188618)
(-0.0206888 -0.0414851 0.051189)
(-0.0149737 -0.00756664 0.0140808)
(-0.00865457 0.00333742 0.024123)
(0.00403937 0.00985278 0.0129791)
(0.00523912 0.005123 -0.00129385)
(0.00511598 0.00101778 -0.00342639)
(0.00967925 0.000339747 -0.00258737)
(0.00564388 0.00249089 0.00440213)
(-0.00904214 -0.000260517 0.0077859)
(-0.0183706 -0.00410589 -0.00194877)
(-0.0235371 -0.0050142 -0.00517387)
(-0.0429234 -0.00237478 0.00559789)
(0.0223499 -0.00218206 0.00701848)
(0.243198 0.00823365 0.0272666)
(0.182366 0.0137669 0.0780602)
(0.0237641 0.0252876 0.0353412)
(0.0165808 0.025362 -0.0303894)
(0.0449376 0.0300425 -0.0661811)
(0.0380714 0.0191657 -0.0440222)
(-0.0252442 -0.0400588 0.00358642)
(0.148719 0.0106597 -0.0382412)
(-0.751536 -0.068061 -0.0646156)
(-1.48871 -0.381317 0.116266)
(0.80821 -0.103319 1.10651)
(0.819458 0.152061 0.706022)
(0.117672 0.03852 0.0841866)
(-0.0045404 -0.00627486 -0.0131875)
(-0.00117683 -0.00380366 -0.00515934)
(0.000185595 -0.00059408 -0.000634328)
(-0.000423821 0.000136637 0.000213287)
(0.000143263 0.000234664 -5.59801e-05)
(-0.000598708 0.000802397 -0.000808056)
(0.0016872 -0.00169829 0.00326402)
(0.00362268 -0.00273622 0.00673045)
(-0.00567755 0.00217982 -0.00723336)
(-0.0351223 0.00115027 -0.0196259)
(-0.0579399 -0.00713186 -0.0157654)
(-0.0409134 -0.0111385 -0.00694371)
(-0.0147177 -0.00966147 -0.00185509)
(0.000697111 -0.00895165 -0.00463884)
(-0.00215956 -0.0106633 -0.001535)
(-0.0048559 -0.00220645 0.000245398)
(-0.00725215 -0.000758226 0.00295025)
(-0.00456519 0.00157127 0.00196438)
(-0.000324666 0.000972123 -0.000271086)
(0.00145763 8.40796e-06 -0.000611137)
(0.00113616 -0.000196183 -0.00013878)
(0.00105443 1.15228e-05 -5.20448e-05)
(0.000634568 -8.39169e-06 0.000455532)
(0.000420052 -0.000432304 0.000457487)
(0.00112989 -0.000995457 -0.000850416)
(0.00251665 0.0010324 0.00070713)
(-0.017132 -0.000438971 0.00184156)
(0.0300603 0.000254969 -0.00742349)
(0.084874 0.00969305 -0.00565991)
(0.0445997 0.0093798 -0.00253378)
(0.00888085 0.00292354 -0.0026305)
(0.00603492 0.00178293 -0.00560808)
(0.0052016 0.0035351 -0.0190984)
(0.000430257 -0.00575886 0.00146783)
(0.00371917 -0.026099 -0.0426673)
(-0.0849905 0.00960996 0.0219904)
(-0.707993 -0.104691 0.15922)
(-0.212266 -0.0780805 0.362299)
(0.0871605 0.016113 0.189075)
(0.0125659 -0.00266307 0.0114606)
(0.00101014 -0.00466289 -0.00485941)
(0.000461654 -0.00107762 -0.000583246)
(0.000393843 -0.000239008 3.00833e-06)
(0.000205609 5.44466e-06 3.31491e-05)
(-8.36612e-05 -6.74664e-05 -2.37364e-05)
(3.98133e-05 0.000179434 -9.21115e-05)
(-7.04606e-05 0.00011522 -0.00019546)
(-7.65473e-05 5.25307e-05 -0.000172021)
(0.000330378 -0.000216569 0.000972787)
(-7.69903e-05 4.62253e-05 -0.000269056)
(-0.000987229 0.000134652 -0.00139252)
(-0.00296029 -0.000325761 -0.00101558)
(-0.00332801 -0.000812023 -0.000262792)
(-0.0023019 -0.000837091 -0.000241146)
(-0.00223816 -0.00166297 -0.00091014)
(-0.000733569 -0.000261758 -0.000225949)
(-0.00187586 -0.000190548 2.60766e-05)
(-0.00140121 -3.39651e-06 0.000108221)
(2.70251e-05 -4.86919e-05 7.42293e-06)
(2.64347e-05 -6.10111e-06 1.98635e-06)
(8.97483e-06 -1.91383e-06 4.75078e-07)
(-1.2767e-05 -1.92291e-06 4.67016e-06)
(0.000345333 1.75259e-05 -7.25263e-05)
(0.000286736 -5.45191e-05 5.00454e-05)
(4.78847e-05 -7.1101e-05 -0.000210477)
(0.00136407 3.79675e-05 -0.000322684)
(-0.00221472 0.000200266 0.000501495)
(-0.00454127 -0.000790686 -0.00333516)
(0.0172803 0.000836694 -0.00757139)
(0.0164996 0.000848267 -0.00311073)
(0.00253195 1.63604e-05 -0.000453578)
(-0.000652874 0.00029596 0.000519153)
(0.00032774 0.000468616 -0.00309329)
(-0.000773852 0.00111341 -0.00170579)
(0.00211006 -0.0121222 -0.0118631)
(-0.00121078 0.00306664 0.00136317)
(-0.120383 -0.000410775 0.0841052)
(-0.158132 -0.0291415 0.0818753)
(-0.050485 -0.0126291 0.0241818)
(-0.00443051 -0.00515087 -0.00115818)
(0.00189742 -0.00188151 -0.000828533)
(0.00126038 -0.000482502 5.13454e-05)
(2.88741e-05 -5.65202e-06 6.07455e-06)
(-1.74607e-06 -2.7277e-07 -6.56417e-07)
(9.34281e-07 5.52733e-07 5.79525e-07)
(-1.30842e-06 -1.04352e-06 -6.27809e-07)
(-4.26867e-07 -6.25838e-07 8.61842e-08)
(2.72972e-07 -2.97469e-07 5.96968e-07)
(-2.31247e-06 5.60192e-07 -3.95614e-06)
(4.55676e-07 -1.84271e-08 8.70751e-07)
(-8.27409e-08 -1.91873e-07 4.46611e-07)
(2.20095e-07 -1.86004e-07 4.62292e-07)
(-9.21535e-05 3.19137e-05 -2.51855e-05)
(-5.07682e-06 1.38899e-07 5.68036e-07)
(-0.000159938 -5.75742e-05 -0.000120495)
(-1.73999e-06 -3.72534e-07 -1.90477e-06)
(-1.46004e-05 -2.40068e-06 -1.89151e-06)
(-1.85642e-05 -3.77599e-06 2.75588e-06)
(5.47939e-08 -1.19084e-06 1.21134e-06)
(3.3912e-07 -1.09566e-07 1.2834e-07)
(4.63244e-08 -9.69031e-09 8.31222e-09)
(3.24228e-08 3.89015e-09 -1.25103e-08)
(-3.29241e-07 -6.17988e-08 2.89551e-07)
(-1.11406e-06 4.21622e-10 6.55562e-07)
(2.0111e-06 1.1695e-06 2.50165e-06)
(0.000179378 -1.65145e-05 -0.000181976)
(0.000466124 9.88575e-05 -8.4616e-05)
(-0.001828 -0.000381954 -0.0006063)
(0.00121157 -0.000364831 -0.0014946)
(0.0027014 -0.000270167 -0.000811639)
(0.00111201 -0.000189984 -0.000331133)
(-0.000416141 0.000113267 0.000472882)
(-2.94729e-05 8.08019e-07 0.000431995)
(-0.000728444 0.0004865 -0.000626537)
(0.00146149 -0.00191533 -0.00113608)
(0.000235566 -0.00123537 -0.00292558)
(-0.00618018 0.00735022 0.0205372)
(-0.0310878 -0.0012775 0.0154338)
(-0.017128 -0.00551749 0.000467229)
(-0.000136338 -0.00236126 -0.000821874)
(0.000853792 -0.000541528 8.51757e-05)
(2.10485e-05 -8.79078e-06 7.2905e-06)
(2.22035e-07 -6.11602e-08 2.06584e-07)
(8.53736e-09 6.11518e-09 1.00186e-08)
(-3.93448e-09 -2.62096e-09 -3.7131e-09)
(8.38393e-09 3.66597e-09 6.63249e-09)
(5.65605e-09 2.22075e-09 4.08477e-09)
(1.74184e-09 1.32707e-09 8.33369e-10)
(7.45479e-09 -1.65562e-09 9.42959e-09)
(-1.48442e-09 -1.49526e-10 -1.69105e-09)
(-5.87008e-09 5.44318e-10 -9.6145e-09)
(1.71539e-08 -2.63549e-09 2.16811e-08)
(-1.7676e-07 1.449e-07 -1.15483e-07)
(1.96189e-08 3.89651e-08 -7.2957e-09)
(-2.5494e-07 3.85126e-08 -2.12281e-07)
(-3.51894e-09 2.25067e-09 -4.86223e-09)
(-3.08202e-08 -7.91302e-09 -2.39098e-08)
(-5.26246e-08 -6.80866e-08 3.69939e-08)
(1.40509e-08 -2.45547e-08 2.1944e-08)
(2.72303e-09 -1.78833e-09 1.82906e-09)
(1.4638e-10 -5.05419e-11 5.41409e-11)
(-1.13927e-11 2.00396e-12 -5.61322e-12)
(-7.07499e-11 -1.14512e-10 5.33604e-10)
(8.58034e-09 6.70216e-09 -2.3593e-08)
(-9.61572e-08 -1.54125e-07 1.20923e-07)
(-1.51297e-06 2.64858e-06 7.00388e-06)
(0.000195087 2.31415e-05 -0.000230754)
(-0.000412548 -0.000199853 0.000136779)
(4.49223e-05 -0.000144438 -0.000132745)
(2.90732e-05 -9.63979e-06 -1.80499e-05)
(7.04634e-06 -1.68734e-06 -5.10462e-06)
(-5.57327e-06 1.18569e-06 9.43336e-06)
(-6.86943e-05 4.45099e-05 -0.000136282)
(-0.000155313 7.81336e-05 -6.23359e-05)
(-9.2047e-05 5.20782e-05 2.6645e-06)
(0.00021151 -0.00047731 -0.000668391)
(0.00023586 0.00116751 0.00214541)
(-0.000104648 0.000794862 0.00268207)
(0.000174964 -0.00105148 0.000465951)
(0.000391509 -0.000581088 5.2768e-05)
(1.25619e-05 -1.46887e-05 3.66462e-06)
(9.3239e-08 -8.128e-08 8.73093e-08)
(-1.89968e-09 5.4119e-09 -1.09823e-09)
(4.35472e-11 2.18145e-10 -4.04864e-11)
(2.88699e-11 1.52413e-11 1.9295e-11)
(-2.36989e-11 -4.51921e-12 -2.15744e-11)
(-2.09937e-11 -2.59731e-12 -2.09519e-11)
(-1.72743e-11 -2.44455e-12 -1.75956e-11)
(1.26897e-12 2.85068e-12 5.79515e-12)
(1.47288e-14 6.98684e-13 4.86582e-13)
(2.41828e-11 -3.30921e-15 3.52646e-11)
(4.66227e-11 -1.81736e-12 7.90247e-11)
(-3.61154e-10 1.96538e-10 -5.43393e-10)
(-1.04029e-10 3.295e-10 -9.04863e-11)
(-1.71879e-09 -9.42369e-10 5.3314e-10)
(-1.71311e-11 -2.25341e-12 9.74948e-12)
(7.36281e-11 -4.78703e-11 -1.70895e-10)
(6.82424e-10 -7.5698e-10 -1.70496e-10)
(2.22053e-10 -2.48814e-10 6.35254e-11)
(1.30467e-11 -1.382e-11 1.02591e-11)
(-4.74196e-14 -1.97975e-13 5.81987e-13)
(1.83706e-13 6.10451e-14 -6.36283e-14)
(-3.37655e-12 -5.79646e-13 -1.08773e-12)
(4.45091e-12 -4.62353e-12 6.86085e-11)
(4.81002e-10 2.72209e-10 -7.03013e-10)
(-2.70492e-09 -2.22349e-09 -6.95943e-10)
(-2.16382e-08 -4.88151e-08 -2.16998e-07)
(-8.85997e-07 -6.13789e-07 1.55073e-06)
(-4.78493e-07 -1.30516e-06 -6.95727e-08)
(1.14537e-07 -1.26618e-07 -2.29649e-07)
(2.13914e-08 -4.467e-09 -4.32879e-08)
(-3.29851e-10 -4.79938e-09 5.65925e-09)
(5.61131e-08 -7.68313e-08 -8.33728e-08)
(1.14571e-07 -8.98388e-08 -2.53758e-07)
(1.33114e-07 2.11567e-07 5.1158e-07)
(-2.01841e-06 -3.7344e-07 -2.11489e-06)
(1.04273e-06 -7.52886e-07 -9.32602e-07)
(1.73647e-06 1.78247e-06 7.02326e-06)
(4.84283e-06 -3.28706e-06 5.0652e-06)
(3.87507e-08 -1.16341e-06 2.71983e-07)
(-3.72601e-08 -1.41755e-08 -7.97946e-09)
(-1.36631e-10 1.84735e-11 -6.86453e-11)
(-1.334e-11 -2.73655e-11 2.32984e-11)
(-3.45253e-12 -1.3653e-12 9.55242e-13)
(-2.99458e-13 -4.16015e-14 -4.96653e-14)
(2.32609e-14 -2.653e-16 1.56546e-14)
(3.22625e-14 -5.06469e-15 3.82465e-14)
(6.31757e-14 -1.371e-15 7.02466e-14)
(-2.06152e-14 3.63108e-15 -9.77152e-14)
(1.53473e-14 -5.64811e-15 -7.96278e-15)
(-1.22594e-13 -1.81547e-14 -1.2028e-13)
(5.19401e-14 7.71373e-15 7.37837e-14)
(-3.77257e-13 7.53021e-14 -8.84692e-13)
(-2.36679e-12 1.48999e-12 -2.1966e-12)
(1.34167e-12 -7.21714e-12 1.33584e-12)
(-6.5221e-15 -6.67524e-14 2.7534e-14)
(-9.0239e-14 -1.88285e-13 -1.62425e-13)
(3.34414e-12 -4.3814e-12 -2.8611e-12)
(1.24976e-12 -1.14876e-12 -5.79854e-13)
(8.81194e-14 -4.92613e-14 4.29956e-15)
(1.40981e-15 6.04629e-16 1.08352e-15)
(-1.58738e-15 2.21731e-15 -4.34474e-15)
(1.55149e-14 8.53756e-15 -1.53337e-14)
(-8.76223e-14 -7.19383e-14 6.96584e-15)
(-4.8367e-13 3.85788e-13 9.58081e-13)
(9.22026e-12 1.97014e-12 -3.96895e-12)
(-1.60976e-10 -8.18398e-11 -7.14521e-11)
(2.17481e-10 5.94333e-10 3.37464e-09)
(-6.5259e-09 -3.36642e-09 1.73663e-09)
(-1.18407e-09 -4.19423e-10 -1.33532e-09)
(-1.2638e-10 8.80796e-11 -1.32381e-10)
(3.89857e-12 -1.07281e-11 -1.35752e-11)
(-2.96997e-11 -3.10085e-11 -2.25056e-10)
(8.37793e-10 -5.88887e-10 8.00485e-10)
(2.69077e-09 -2.50922e-09 -2.64437e-09)
(1.16104e-09 5.92986e-09 1.84237e-08)
(-2.78789e-09 -1.24167e-10 -1.93609e-09)
(-2.08383e-08 5.21625e-10 8.06917e-11)
(-5.61797e-08 -1.2419e-09 7.85089e-09)
(-1.1984e-08 2.97801e-10 3.9161e-10)
(-3.76018e-10 8.32682e-11 -3.28844e-11)
(2.93218e-12 3.9516e-12 -1.24885e-12)
(9.32506e-13 1.14038e-13 -4.67264e-14)
(6.99664e-14 -1.75824e-15 1.8531e-15)
(5.51057e-14 5.13845e-17 -1.81459e-15)
(3.12427e-14 -2.86702e-15 7.25796e-15)
(9.5487e-15 1.07294e-15 7.45739e-15)
(1.77206e-14 -4.69422e-15 2.55961e-14)
(1.50578e-14 -5.00594e-15 2.36334e-14)
(-1.61003e-14 2.43083e-15 -5.59074e-15)
(9.26614e-15 -1.82002e-15 -5.83274e-15)
(-1.5384e-14 -5.11066e-15 -2.05644e-14)
(9.72168e-15 2.30171e-15 2.40629e-15)
(-1.57235e-15 3.4266e-15 -5.28745e-15)
(2.03789e-14 -3.23641e-15 2.38573e-14)
(9.21519e-16 -2.00029e-15 -1.31691e-15)
(-1.2845e-15 -3.13246e-15 3.46179e-15)
(7.12051e-15 2.23634e-15 -6.82079e-15)
(-9.94974e-15 -2.68311e-14 1.49937e-14)
(-5.51104e-17 6.00232e-16 6.97138e-16)
(1.77516e-14 -1.285e-15 7.12996e-15)
(6.75198e-16 3.10985e-15 -4.87807e-15)
(-1.27953e-15 3.43085e-15 -5.34041e-15)
(1.1528e-14 7.86462e-15 -1.70033e-15)
(2.02521e-15 4.81256e-16 1.91345e-15)
(-1.82626e-14 9.5142e-15 1.11292e-14)
(-1.72581e-13 -4.851e-14 4.4152e-14)
(2.75221e-12 4.42967e-12 1.9463e-12)
(-3.17666e-11 3.61366e-11 1.61289e-11)
(-1.79052e-11 8.44912e-12 2.76045e-12)
(-2.12066e-12 8.86277e-13 1.26529e-12)
(9.08212e-16 2.44893e-15 -5.06632e-15)
(-4.14069e-14 1.74908e-13 -1.01951e-13)
(-5.25033e-13 1.3618e-12 2.85775e-13)
(-8.17973e-12 9.45447e-12 9.91319e-12)
(1.86579e-11 -6.61136e-12 -4.03142e-11)
(1.96514e-13 -6.39352e-14 3.50087e-13)
(-3.90703e-11 5.75388e-12 -1.01346e-11)
(-2.88188e-10 3.18062e-11 -3.59363e-12)
(-6.13842e-11 6.52298e-12 4.99033e-12)
(-1.60502e-12 1.08845e-13 5.24995e-13)
(1.03131e-13 -2.52449e-14 2.91247e-14)
(4.38448e-14 -7.86227e-15 4.59319e-15)
(0 0 0)
(-1.64781e-14 -3.68942e-15 1.78169e-15)
(0 0 0)
(-8.99573e-15 2.57757e-15 -3.01442e-15)
(-5.97969e-15 1.38585e-14 -1.21916e-14)
(-3.49805e-14 1.00728e-14 -2.51672e-14)
(-8.02734e-16 4.63452e-17 1.22578e-14)
(-3.63087e-15 8.272e-16 -1.53777e-14)
(-1.28651e-14 -2.6163e-15 3.27314e-16)
(-1.53282e-15 -3.51537e-15 -1.1399e-14)
(1.70243e-15 -2.43327e-15 -4.79914e-16)
(8.17384e-15 2.69101e-15 1.06785e-14)
(-5.12365e-15 -2.90964e-15 -2.96517e-15)
(-1.78481e-15 -1.98773e-15 -1.96787e-15)
(1.32071e-14 3.37547e-15 -8.04224e-15)
(1.20137e-14 -7.2848e-16 -3.68452e-15)
(1.14545e-14 -4.55961e-15 -1.18861e-15)
(4.33073e-15 7.86593e-16 -1.62045e-15)
(1.649e-14 -4.75054e-16 -5.76549e-15)
(-3.42549e-15 -1.05139e-14 1.79875e-14)
(-4.63998e-15 -9.93089e-15 1.37203e-14)
(-6.8967e-15 -1.38842e-15 -3.68508e-16)
(2.97089e-15 7.21833e-15 7.4779e-15)
(-2.74577e-15 3.30528e-15 2.07283e-15)
(1.91224e-14 -1.51259e-14 -1.91341e-14)
(-1.24206e-13 3.37277e-13 1.94555e-13)
(-1.17026e-13 9.96845e-14 1.15863e-13)
(-3.54489e-15 -1.30281e-15 3.78389e-15)
(-0 0 0)
(-8.98255e-16 -7.07856e-15 -3.74457e-15)
(-3.50654e-15 1.12109e-14 8.09505e-15)
(5.21855e-15 -1.27689e-14 -3.03498e-14)
(-2.57965e-14 -1.55695e-14 8.00686e-14)
(7.28689e-16 -1.25336e-15 -4.65529e-16)
(-1.41481e-14 2.20816e-14 -3.01521e-14)
(-1.44311e-13 1.43885e-13 1.34206e-14)
(6.06273e-14 -3.50979e-15 8.30698e-14)
(9.61987e-15 -3.34936e-15 6.67004e-15)
(0 0 0)
(-5.98167e-15 -1.41203e-16 -4.25548e-15)
(-3.16573e-14 7.7173e-15 -5.46935e-15)
(2.63093e-14 -1.17868e-14 1.01663e-14)
(-1.82548e-14 2.72277e-15 -2.38207e-15)
(-3.14915e-15 1.98771e-15 1.9103e-15)
(-9.29052e-15 -6.15629e-15 -4.34676e-15)
(-3.57765e-15 6.11593e-15 -6.03935e-15)
(2.66587e-14 1.16524e-15 1.93397e-14)
(-1.04666e-14 -2.71298e-15 -8.63377e-16)
(-6.98831e-15 -5.40302e-15 -6.25482e-15)
(0 0 0)
(-4.68865e-15 -1.28172e-15 -4.60879e-15)
(4.70675e-15 9.83689e-15 -1.86059e-15)
(-2.48857e-14 -8.00224e-15 -1.98881e-14)
(-1.30084e-14 -1.23111e-15 -1.03344e-14)
(2.09253e-14 -5.96332e-15 1.66547e-14)
(-2.37675e-14 1.71311e-14 -6.50356e-15)
(2.22892e-15 3.29352e-15 4.94508e-15)
(1.19652e-14 -7.90199e-15 -1.28223e-15)
(3.31775e-15 3.04347e-15 7.49196e-15)
(2.3604e-16 -1.68941e-15 -9.08945e-15)
(-7.50921e-15 9.18789e-15 -1.18562e-14)
(3.12888e-15 -7.47843e-16 1.68177e-15)
(8.93395e-16 -1.04698e-14 -4.69844e-15)
(1.84794e-17 1.06233e-15 4.53411e-15)
(-1.29618e-15 3.84966e-15 -1.80755e-15)
(0 0 0)
(-5.95238e-15 3.26691e-15 6.317e-15)
(8.15095e-17 4.17033e-15 1.60288e-14)
(-1.27071e-15 -2.543e-16 -6.54948e-15)
(1.01109e-15 5.12754e-15 3.23237e-15)
(-3.30623e-15 1.00526e-15 3.66335e-15)
(5.34041e-15 1.71408e-15 -5.56544e-15)
(0 0 0)
(3.25541e-15 2.4941e-15 -7.09561e-15)
(-1.43243e-15 1.03666e-15 -5.86679e-15)
(-9.29453e-16 2.41166e-15 -2.67446e-15)
(3.44853e-14 -6.74139e-15 9.30277e-15)
(-7.61971e-15 2.33436e-15 -3.76822e-15)
(1.85959e-15 -7.32751e-16 3.74598e-16)
(-4.75391e-15 9.75678e-16 9.4459e-16)
(4.06894e-14 -5.81125e-15 9.55631e-15)
(0 0 0)
(9.96324e-15 2.46981e-16 -7.7678e-16)
(1.29717e-14 1.0949e-15 -7.6095e-15)
(4.46299e-15 -5.52198e-15 -3.88987e-15)
(-1.25939e-15 -2.47934e-15 -4.3924e-15)
(0 0 0)
(-1.92244e-14 -1.58725e-16 -1.25415e-14)
(-1.82515e-14 -4.73058e-15 -1.20697e-14)
(2.62093e-15 2.901e-15 -3.94361e-16)
(1.43284e-15 9.4784e-16 3.18385e-15)
(0 0 0)
(3.20177e-15 -2.76784e-16 -4.74956e-16)
(-1.40737e-14 -9.2342e-16 -1.65022e-15)
(-1.51066e-16 4.43589e-15 2.27159e-15)
(-1.95343e-14 3.57713e-15 -2.78827e-16)
(-3.98767e-15 2.24769e-15 1.04675e-15)
(-3.26071e-15 -6.80355e-17 3.10889e-15)
(1.26919e-15 6.37694e-15 -6.72045e-16)
(-5.97193e-15 4.36161e-15 -1.3532e-16)
(0 -0 0)
(0 -0 0)
(2.76422e-15 9.43396e-15 1.78408e-15)
(0 0 0)
(-1.04091e-14 2.02097e-15 -9.78478e-15)
(-9.10931e-15 4.8608e-15 -8.58314e-15)
(-4.03098e-15 2.59226e-15 4.28806e-15)
(7.17895e-15 -1.60384e-15 3.58295e-15)
(0 0 0)
(-4.74501e-15 4.71933e-16 -5.73312e-15)
(4.65267e-15 -5.23618e-15 -7.79208e-15)
(-1.57093e-15 -7.238e-16 4.66825e-15)
(3.80404e-15 -4.63212e-15 5.98996e-16)
(7.04286e-16 1.59468e-16 1.35341e-15)
(0 0 0)
(0 0 0)
(-1.5977e-14 9.36928e-15 6.74689e-15)
(-3.60412e-15 -2.85054e-15 -3.65727e-15)
(3.64174e-15 2.38478e-15 4.37417e-15)
(1.06755e-14 2.06249e-15 8.78249e-15)
(1.05207e-15 2.0819e-15 3.41634e-15)
(-1.61321e-15 1.53556e-15 3.21242e-15)
(4.79549e-15 -2.52928e-15 2.70918e-15)
(0 -0 0)
(0 -0 0)
(-1.67856e-14 1.40459e-14 4.8305e-15)
(1.73821e-14 -1.44394e-14 -8.97419e-15)
(5.50897e-15 1.14412e-15 6.5117e-15)
(-1.16277e-14 -1.65454e-15 -8.29409e-15)
(4.09352e-15 2.55073e-15 1.86674e-15)
(5.15203e-15 1.72814e-15 -3.51438e-15)
(0 0 0)
(-9.10734e-15 -2.09486e-15 2.08988e-16)
(-1.22501e-15 -8.99328e-16 -1.35437e-15)
(6.7611e-15 -1.63664e-15 3.5308e-15)
(1.72302e-14 5.02719e-15 -1.19093e-15)
(1.59492e-14 3.01299e-15 -3.3484e-15)
(0 0 0)
(-1.28503e-15 4.89218e-15 5.58414e-15)
(3.56702e-15 -5.53524e-15 -2.23104e-15)
(5.44742e-15 5.48518e-15 -3.21326e-15)
(-3.17811e-15 3.15493e-15 -5.08938e-15)
(3.64971e-15 -1.00307e-14 6.01807e-15)
(7.32473e-15 -6.71326e-15 4.03335e-15)
(9.26647e-16 -8.82739e-15 5.71064e-15)
(9.83557e-15 1.17498e-14 1.00107e-15)
(1.09976e-15 6.66517e-15 4.24521e-15)
(8.88486e-15 2.35421e-15 -2.5339e-16)
(-1.42615e-14 1.24626e-15 6.45429e-15)
(2.64373e-15 3.54304e-15 -1.82007e-15)
(0 0 0)
(4.8532e-16 -6.7637e-15 -4.56921e-15)
(-6.71686e-15 9.22906e-15 9.28687e-15)
(2.0577e-15 -1.62715e-15 -1.61532e-15)
(-8.9448e-15 -2.90952e-15 2.73263e-15)
(-2.05109e-15 1.54079e-16 -9.53347e-17)
(-0 0 0)
(1.55063e-16 -3.2476e-15 -1.49778e-15)
(-2.54751e-15 3.54806e-15 3.03796e-15)
(4.13039e-15 -2.40016e-15 -1.01577e-15)
(1.01102e-15 8.91866e-16 3.47693e-15)
(1.35313e-15 -8.62074e-16 -5.44566e-16)
(2.28182e-15 -1.26947e-15 -9.31965e-15)
(0 -0 0)
(-6.85635e-16 -4.05047e-15 -3.17173e-15)
(-9.35014e-15 -1.04207e-15 -2.25076e-15)
(3.0238e-14 -1.0553e-14 9.63553e-15)
(9.58616e-15 3.69461e-15 -3.09401e-15)
(3.49544e-15 5.71838e-15 7.38575e-15)
(-4.07251e-16 -8.08934e-15 -1.78716e-15)
(9.03766e-17 -1.99073e-16 -8.56395e-16)
(-6.5289e-15 1.8255e-15 -7.0838e-15)
(0 0 0)
(4.75212e-15 3.32091e-15 4.32265e-15)
(-3.24218e-15 1.38887e-17 4.95548e-16)
(0 0 0)
(-7.20937e-16 2.16457e-15 1.29933e-16)
(-7.98023e-16 2.79906e-15 3.76578e-15)
(1.02458e-14 -4.37046e-15 3.71305e-15)
(2.41874e-15 -6.50347e-15 4.06335e-15)
(-7.61608e-16 2.7127e-15 6.64244e-16)
(6.17197e-16 -3.50442e-16 4.30388e-15)
(4.6312e-15 -6.46039e-15 -3.54889e-15)
(3.61874e-15 -7.46958e-15 2.04971e-15)
(-5.54444e-15 4.11333e-15 -1.48871e-15)
(4.01969e-15 1.16221e-14 -2.54081e-15)
(-1.03994e-17 -8.62863e-15 -2.44876e-16)
(-4.32412e-15 5.87133e-15 -3.67493e-15)
(0 0 0)
(-8.46064e-16 5.43983e-15 -5.65199e-15)
(-5.9505e-15 3.93447e-15 -3.81349e-15)
(-2.9919e-15 7.65646e-16 -1.47021e-15)
(5.00189e-15 -5.24971e-15 -5.28692e-15)
(3.71214e-15 -2.37446e-15 -4.895e-16)
(3.06071e-15 -3.08116e-16 -7.07354e-15)
(-3.70532e-15 7.08723e-15 -1.55669e-16)
(-1.22481e-14 1.01975e-14 3.97718e-15)
(2.16643e-15 -5.81419e-15 4.33975e-15)
(1.03847e-14 -3.31338e-15 -2.42225e-16)
(-3.6447e-15 -8.8212e-16 -1.64444e-15)