/*--------------------------------*- C++ -*----------------------------------*\
| =========                 |                                                 |
| \\      /  F ield         | OpenFOAM: The Open Source CFD Toolbox           |
|  \\    /   O peration     | Version:  5.0                                   |
|   \\  /    A nd           | Web:      www.OpenFOAM.org                      |
|    \\/     M anipulation  |                                                 |
\*---------------------------------------------------------------------------*/
FoamFile
{
    version     2.0;
    format      ascii;
    class       volVectorField;
    location    "50.4676134421789371";
    object      GradTUPMean;
}
// * * * * * * * * * * * * * * * * * * * * * * * * * * * * * * * * * * * * * //

dimensions      [0 -1 -1 1 0 0 0];

internalField   nonuniform List<vector> 
60000
(
(-26.8643 -6.95472 -65.3277)
(22.5232 -6.42584 -45.9535)
(58.4258 -2.93004 -19.8929)
(64.1895 1.05928 6.67747)
(39.6448 2.65164 31.805)
(6.44716 1.09867 46.8808)
(-15.0879 -0.190507 43.0199)
(-33.0272 -0.419788 17.9297)
(-61.4977 0.154293 -21.1258)
(-83.8871 -1.49433 -54.1996)
(-81.5455 -3.91346 -65.8899)
(-54.1935 -4.6874 -53.4642)
(-25.7362 -1.97268 -26.299)
(-19.3685 0.577737 0.972441)
(-30.3604 0.600416 25.7772)
(-41.0212 0.65921 51.5529)
(-47.9296 2.96136 72.584)
(-63.8554 4.99677 84.9127)
(-91.3667 3.44798 96.1927)
(-129.951 -0.590886 88.433)
(-180.962 -2.32036 40.1963)
(-238.934 -2.55114 -30.821)
(-280.934 -1.02866 -83.4959)
(-319.77 4.74494 -98.0273)
(-381.902 12.9612 -81.9173)
(-446.806 16.8879 -58.1687)
(-469.803 12.4205 -47.5227)
(-412.822 3.21622 -53.0416)
(-278.725 -3.75436 -52.9112)
(-148.333 -4.28218 -20.2754)
(-112.93 -1.70075 35.0575)
(-146.776 -1.8178 78.0581)
(-181.817 -4.40567 98.352)
(-175.415 -6.18804 111.623)
(-102.625 -5.91703 121.225)
(-0.529676 -0.906912 97.2758)
(18.4387 1.6003 26.103)
(-35.712 0.0991849 -40.4274)
(-71.3473 -2.97614 -71.3578)
(-64.4458 -5.57319 -75.1211)
(11.1164 1.36849 4.34508)
(8.74255 1.40344 1.57379)
(6.29887 0.51964 -1.39996)
(3.08142 -0.517361 -2.34869)
(-1.39918 -1.06469 -2.57401)
(-3.24216 -0.616233 -4.58858)
(-1.09398 -0.00299386 -4.69101)
(1.3306 0.276954 -0.697648)
(4.32292 -0.123786 5.17605)
(8.61839 0.271221 8.86839)
(10.7909 0.772209 8.49872)
(9.6987 1.08186 6.06469)
(6.02531 0.699105 2.66837)
(2.43623 -0.17816 -1.24606)
(2.99218 -0.860102 -4.58987)
(7.65137 -1.50152 -6.46484)
(10.6733 -1.86012 -6.23991)
(8.82104 -1.61677 -4.38002)
(4.46825 -0.201376 -2.36602)
(0.812029 1.39535 -0.155336)
(-1.45707 2.08424 3.43469)
(-0.4512 1.46808 8.23264)
(2.64676 0.222162 9.99544)
(5.1787 -1.15689 7.12879)
(6.68439 -2.14515 3.02934)
(7.4886 -2.42258 -0.557796)
(7.86288 -1.7491 -2.75612)
(8.14091 -0.676857 -3.27225)
(7.61911 0.125238 -2.38329)
(5.13819 0.338031 -0.895245)
(1.72731 0.0763323 0.0377414)
(0.463529 -0.211484 -0.130574)
(2.47508 -0.122839 -0.734234)
(7.02755 0.225576 -0.865537)
(11.211 0.655385 -0.714276)
(9.07503 0.600927 -1.18147)
(0.0510538 -0.349505 -1.60215)
(-2.39916 -0.829718 0.365726)
(4.94366 -0.377482 3.85608)
(10.669 0.616841 5.46329)
(8.16288 2.04158 5.04619)
(11.2541 3.22522 4.88635)
(11.316 1.61327 1.07003)
(9.26052 -0.510653 -0.751872)
(0.661881 -1.6527 2.30211)
(-10.1994 -1.61197 2.00201)
(-13.7902 -0.766498 -4.03923)
(-11.921 0.377537 -7.05465)
(-11.7784 -0.105424 -4.20175)
(-7.80811 -0.528854 3.36497)
(-1.03801 0.742913 8.24848)
(1.74008 2.5638 8.33785)
(-2.1309 2.81953 5.73234)
(-9.233 0.758498 1.64079)
(-10.5568 -1.75515 -1.22102)
(-3.91978 -3.61885 -1.45084)
(0.601797 -4.77647 -0.707764)
(-8.53858 -4.50356 0.647792)
(-25.4092 -1.07395 1.65813)
(-37.57 5.36509 2.32104)
(-42.9684 10.0143 5.53624)
(-41.56 8.13678 16.8419)
(-35.3191 1.41738 28.0257)
(-38.8713 -6.01083 22.8355)
(-53.2807 -9.92257 8.57156)
(-70.7085 -9.29993 -5.71347)
(-81.2978 -4.91823 -15.8331)
(-76.87 0.384884 -20.7931)
(-59.31 4.03174 -19.4624)
(-43.74 4.74817 -10.7797)
(-43.8495 2.80782 1.12009)
(-51.9407 -0.117896 8.62348)
(-53.7858 -1.61184 9.42097)
(-44.8948 -0.768363 7.62983)
(-24.2432 1.20688 6.06031)
(-5.68602 2.51798 2.74721)
(-10.1166 0.63819 -5.10973)
(-24.1803 -2.61839 -11.005)
(-19.1829 -3.49904 -8.49411)
(-2.07993 -1.29583 -0.498466)
(-3.35556 0.436774 2.00606)
(-1.86547 1.47015 4.01388)
(-2.57392 1.00419 2.7865)
(-2.56065 0.020474 0.607098)
(-2.40339 -0.36391 0.379376)
(-4.09306 -0.428842 1.12212)
(-6.18495 -0.34032 -0.358246)
(-6.55343 -0.0486863 -2.78048)
(-6.75876 0.0568011 -3.50442)
(-6.79466 -0.404871 -1.34018)
(-4.51307 0.0667283 2.41192)
(-2.73302 1.12289 4.06105)
(-3.93437 1.57723 3.25465)
(-6.422 0.765759 1.1685)
(-6.73212 -0.507035 -0.781513)
(-4.11495 -1.19853 -1.59854)
(-1.88426 -1.42173 -1.41998)
(-4.38534 -1.07133 -0.699568)
(-11.0405 -0.260563 -0.442842)
(-16.3769 1.69524 -1.38929)
(-17.0064 3.93179 -1.2976)
(-15.1804 3.92184 2.02816)
(-11.2556 0.832822 8.12516)
(-11.09 -3.04155 8.84188)
(-16.2186 -4.549 4.34088)
(-22.7463 -3.57578 -0.717918)
(-27.0693 -1.368 -4.00913)
(-27.0565 1.11076 -5.63819)
(-22.7628 2.97356 -5.94796)
(-19.2727 3.27529 -4.51107)
(-19.6364 2.2933 -1.5957)
(-22.6575 0.967778 1.36663)
(-25.4746 -0.135149 2.86423)
(-25.9216 -0.420845 2.24264)
(-21.2314 0.217774 -0.021096)
(-13.0556 1.02039 -2.07911)
(-9.46973 0.728318 -2.91773)
(-11.4085 -0.485556 -3.77786)
(-12.5963 -1.35839 -3.98317)
(-8.39262 -1.0248 -1.80023)
(-0.504475 -0.118169 -0.180274)
(0.176956 0.2037 0.623122)
(0.185725 0.262743 0.851163)
(-0.0691793 0.0798123 0.42425)
(-0.104737 -0.0283671 0.116291)
(-0.19291 -0.0358612 0.138638)
(-0.499591 -0.0329795 0.106459)
(-0.84061 -0.0376772 -0.275139)
(-0.978105 -0.013359 -0.60425)
(-1.14283 -0.0681713 -0.580679)
(-0.892505 -0.0433812 0.0588701)
(-0.129504 0.178483 0.709746)
(0.265872 0.33031 0.815799)
(0.0891961 0.248565 0.463702)
(-0.137413 -0.00326465 -0.0139226)
(0.00713291 -0.167061 -0.292748)
(0.370411 -0.236548 -0.360219)
(0.448801 -0.205654 -0.11193)
(-0.588608 -0.101147 0.208354)
(-1.92238 0.152936 -0.172958)
(-1.99385 0.500072 -0.315629)
(-1.73237 0.765722 -0.0484328)
(-0.642827 0.301722 0.976216)
(0.0996381 -0.569771 1.53617)
(-0.646379 -0.839735 0.901698)
(-1.32494 -0.598347 0.197088)
(-1.48375 -0.350941 -0.0767393)
(-1.29092 -0.109428 -0.159125)
(0.0841348 0.344165 -0.268571)
(1.42479 0.679237 -0.321293)
(1.05917 0.588531 -0.11643)
(-0.2608 0.34991 0.242447)
(-1.74268 0.129454 0.577746)
(-2.96077 -0.0357671 0.719453)
(-3.42607 -0.0742861 0.428992)
(-1.87011 0.0929522 -0.373897)
(-0.314471 0.165941 -0.787522)
(-0.500224 0.0171239 -0.783124)
(-1.2623 -0.188901 -0.841633)
(-1.37525 -0.289481 -0.761449)
(-0.0844751 -0.0309483 -0.082759)
(-0.000497095 0.00197805 -0.00307546)
(0.0158623 -0.000918372 -0.00148732)
(0.00074177 -0.0106817 -0.0239005)
(-0.018889 -0.00956633 -0.0254152)
(-0.0243029 -0.0048787 -0.0230987)
(-0.00809755 0.000437868 -0.018547)
(-0.0273597 -0.000598841 -0.00164491)
(-0.0689033 -0.0126335 -0.0380955)
(-0.131998 -0.0200634 -0.0785531)
(-0.221138 -0.0147901 -0.0746677)
(-0.0884272 0.0155792 0.0188131)
(-0.0233547 -0.0326574 -0.072639)
(-0.109584 -0.116683 -0.154031)
(-0.161691 -0.053221 -0.0242861)
(-0.23716 0.0580105 0.119318)
(-0.120751 0.037122 0.0352234)
(0.262107 -0.0603563 -0.0123292)
(0.377804 -0.0556075 0.341256)
(-0.30717 0.0174424 0.195411)
(-0.156657 0.0487438 0.0684045)
(0.383775 -0.0616441 0.364855)
(0.240876 -0.0656015 0.173562)
(0.027992 -0.0031046 -0.0239512)
(0.11218 0.106805 -0.012755)
(0.159909 0.0861757 0.0152496)
(0.0845075 0.0469822 -0.0200714)
(-0.00225781 -0.00670054 6.38194e-05)
(0.2253 -0.0265801 0.0744929)
(1.01057 0.0685408 0.0743188)
(1.04101 0.0998993 0.0559967)
(0.337955 0.0305872 0.0287471)
(-0.00554438 -0.00490622 -0.00729808)
(-0.00135363 -0.00286443 -0.0129377)
(-0.171038 -0.00167503 0.079882)
(-0.324401 -0.0141651 0.0879599)
(0.0347606 0.00326313 -0.0397799)
(0.0650665 -0.000848691 -0.0203657)
(0.00807927 -0.00186451 -0.0220161)
(-0.084073 -0.0268056 -0.0966554)
(0.0142249 0.00747756 0.022291)
(0.0201998 0.0149246 0.0338973)
(0.00544022 0.00154761 0.00317645)
(-0.0293879 -0.0133567 -0.0421129)
(-0.0693275 -0.0117941 -0.0443908)
(-0.115439 -0.0089663 -0.0375649)
(-0.111613 -0.00607891 -0.045205)
(-0.0491361 0.00102133 -0.024784)
(0.00750585 -0.00540573 0.00150019)
(0.0262891 -0.0125969 0.0133235)
(-0.0231074 -0.00537586 -0.00782134)
(-0.0416993 0.0045706 -0.0123595)
(0.0463168 -0.0229081 -0.0301233)
(-0.079091 -0.103302 -0.0702706)
(-0.301606 -0.0677555 0.0266521)
(-0.370202 0.0512644 0.138456)
(-0.207442 0.0785226 0.0754019)
(0.0177568 -0.00355061 -0.0185624)
(0.345032 -0.031443 0.232984)
(0.221559 0.0286083 0.385847)
(-0.20496 0.0442689 0.068478)
(0.461213 -0.103567 0.321365)
(0.587728 -0.145397 0.279108)
(0.398328 0.0477211 0.0814808)
(0.341518 0.156023 0.112575)
(0.0837016 0.058825 0.0223792)
(0.00172333 0.0113989 -0.0132113)
(-0.00941329 0.0129222 -0.0313122)
(-0.00284896 0.00105836 -0.00294923)
(0.124446 -0.0256291 0.0230322)
(0.411951 -0.00975326 0.0478736)
(0.169356 0.00239812 0.022402)
(-0.292494 -0.041341 -0.0508479)
(-0.294887 -0.0647978 -0.096007)
(-0.0136847 -0.0294747 -0.0785234)
(0.0124916 -0.00507195 -0.00206233)
(0.0128678 -0.00748546 0.0110223)
(0.018337 -0.0107086 0.0210339)
(-0.0396438 -0.0106949 0.0614102)
(0.00922495 0.006317 0.0541938)
(0.00807314 0.0047235 0.0223039)
(0.0169923 0.008792 0.0197205)
(0.0261837 0.00934993 0.016034)
(0.0166665 0.00142468 -0.00282226)
(-0.00598155 -0.0011594 -0.00985374)
(-0.0384771 -0.00302347 -0.0109595)
(-0.0787046 -0.00438545 -0.0176248)
(-0.0695066 -0.00284409 -0.02051)
(-0.0219232 -0.0040941 -0.00863124)
(0.0100811 -0.00759478 0.00242062)
(0.00632649 -0.00401364 0.00289971)
(-0.0205986 0.00242726 -0.00902874)
(0.0235582 -0.001913 -0.00718684)
(0.00925723 -0.0258634 0.00675297)
(-0.110393 -0.0183911 0.0332216)
(-0.140059 0.0207191 0.0288413)
(-0.0644324 0.0457512 -0.014908)
(-0.00594664 0.0258787 -0.026886)
(0.123219 -0.025892 0.0628048)
(0.47453 0.0437437 0.292981)
(0.0439204 0.061174 0.153486)
(0.146295 -0.0600061 0.138645)
(0.628172 -0.105976 0.292575)
(0.542581 0.0389007 0.254979)
(0.175979 0.0755953 0.114411)
(0.00618907 0.0180214 0.00387852)
(-0.000304917 -0.00167094 0.00138416)
(0.000409797 -0.000613922 0.00085375)
(-0.00406227 0.00228456 -0.00542056)
(-0.00192181 0.000916607 -0.000706329)
(0.0398793 -0.0191054 0.0134082)
(0.107528 -0.014148 0.0289114)
(-0.000629397 -0.00172075 0.000973537)
(-0.174406 -0.0219756 -0.0370114)
(-0.145224 -0.0300907 -0.0416804)
(-0.0188878 -0.0118357 -0.0205575)
(0.0122287 -0.0048903 0.00127581)
(0.027707 -0.00475023 0.00138329)
(0.00139169 -0.00831106 0.012697)
(-0.00931461 -0.00361199 0.0277914)
(-0.000507103 -3.67851e-05 0.00770217)
(0.00461773 0.00253924 0.00743359)
(0.00889156 0.00389675 0.0054699)
(0.00765419 0.00203768 0.000188072)
(0.00213737 0.000516232 -0.00101427)
(0.00154624 -0.000598554 -0.000472942)
(-0.00738702 -0.000417572 -1.90652e-05)
(-0.0199239 -0.000828327 -0.00290718)
(-0.0142105 -0.00196362 -0.00445927)
(0.000262972 -0.00332394 -0.00273804)
(0.0017737 -0.00202271 -0.000747256)
(-0.0114807 0.00117186 -0.00414455)
(0.0073425 0.000558647 -0.00674498)
(0.015571 -0.0048498 0.00615204)
(-0.0186917 -0.00125803 0.0115371)
(-0.0157127 0.00575439 -0.0050037)
(0.00336641 0.0130471 -0.0220604)
(0.0227042 0.0240573 -0.0285544)
(0.0111994 -0.00956476 -0.000521512)
(0.292814 0.0202764 0.0764087)
(0.330429 0.0678912 0.121321)
(0.0251849 -0.0310819 0.0399605)
(0.377435 -0.0499044 0.21659)
(0.326353 0.0344056 0.206989)
(0.060039 0.0262584 0.0467957)
(-0.00266894 0.00199843 -0.00337684)
(-0.00256961 -0.00100592 -0.00415371)
(0.000622023 0.000247625 0.0011724)
(0.00040456 -5.17222e-05 0.000326745)
(-0.000768907 0.00119984 -0.000574515)
(-0.000713138 0.000420759 -0.000280487)
(0.0080414 -0.0056914 0.00799113)
(0.0205868 -0.00478083 0.0120626)
(0.000648083 -1.27859e-05 0.000715831)
(-0.0378269 -0.00433824 -0.00850209)
(-0.0310264 -0.00621486 -0.00705807)
(-0.00416028 -0.00367346 -0.00182274)
(0.00578042 -0.00246519 0.000833727)
(0.00692257 -0.00254541 0.000543874)
(-0.000588878 -0.00281586 0.00439898)
(-0.000680825 -0.000526193 0.00118253)
(-0.000374709 0.000305311 0.00184837)
(0.000365451 0.00102158 0.00121928)
(0.000801388 0.000686312 -0.000262732)
(0.00034655 0.000146416 -0.000327331)
(0.000706826 -0.000277381 3.05647e-05)
(0.000890858 -0.000211193 3.47815e-05)
(-0.000292688 -1.50764e-05 0.000513329)
(-0.00209958 -0.000302263 -0.000138041)
(0.000214415 -0.000879326 -0.00108842)
(0.0047965 -0.000305513 -0.00102816)
(-0.00213676 0.00102389 -0.00107531)
(0.00075497 -3.43232e-05 -0.00345924)
(0.012086 -0.000317382 0.00172614)
(0.00311722 0.0016012 0.00234389)
(0.000878369 0.001432 -0.00175376)
(0.000375951 0.000266333 -0.000524322)
(0.00930951 0.00735723 -0.0112062)
(0.00739171 0.0018235 -0.000393563)
(0.062143 -0.00618249 -0.00737031)
(0.247599 0.0333919 0.0176996)
(0.00827058 -0.0128406 0.00351944)
(0.0986292 -0.0243536 0.112125)
(0.123394 0.0174642 0.100598)
(0.0202782 0.00596758 0.0129366)
(-0.000865051 -0.00140775 -0.00272967)
(-0.00028009 -0.000652943 -0.000624388)
(8.63948e-05 -0.00025412 -0.000307765)
(-0.00010395 3.11301e-05 2.80502e-05)
(5.93672e-05 -0.000101804 2.56873e-05)
(-0.000212345 0.000343134 -0.000409978)
(-0.000234989 0.0002032 -0.000354276)
(0.0010176 -0.000797576 0.00199343)
(0.00253943 -0.000809276 0.00287797)
(0.000456345 6.21554e-06 0.000291668)
(-0.00433595 -0.00047919 -0.000977333)
(-0.00380997 -0.00100743 -0.000608175)
(-0.000595215 -0.000873225 0.000151821)
(0.000441225 -0.000653025 0.000171007)
(0.000103578 -0.000846875 0.000224296)
(-0.00036399 -0.000205416 6.4513e-05)
(-0.000578294 -6.95839e-05 0.000310262)
(-0.000422208 0.000180132 0.000196618)
(-2.02429e-05 0.0001245 -5.31953e-05)
(0.000193989 8.85924e-05 -0.000197766)
(9.56858e-05 -2.04211e-05 -5.77752e-06)
(0.000144026 -3.91013e-05 7.84203e-07)
(3.20196e-05 1.84367e-06 9.50305e-06)
(0.000107563 5.13391e-05 0.000184419)
(-0.00019782 -0.000228976 -0.000105557)
(0.00210809 -6.63806e-05 -0.000382888)
(0.0027372 0.000497646 -2.22582e-05)
(-1.41068e-05 -8.4723e-05 -0.000435321)
(0.00517664 0.000106116 -0.000897803)
(0.00590332 0.000937513 -0.000491133)
(0.00129008 0.000417815 -0.000433288)
(-0.000903472 -0.000289596 0.000992182)
(0.000239045 0.000777679 -0.00159852)
(0.00207277 0.00294374 -0.00127068)
(0.00226961 -0.00608327 -0.00577585)
(0.0661363 -0.00100727 -0.0235559)
(0.00958488 -0.00357443 -0.00446313)
(-0.0144267 -0.0139177 0.0383688)
(0.0165069 0.000644248 0.0295235)
(0.0026385 -0.000720129 0.00174844)
(0.000288115 -0.000995164 -0.000980565)
(0.000180641 -0.000287225 -0.000210187)
(7.5465e-06 -3.35649e-05 2.32248e-05)
(0.000139024 8.26586e-06 2.38741e-05)
(-9.49747e-06 -8.76536e-06 -1.98505e-06)
(-7.95601e-07 -1.471e-05 9.04059e-06)
(-1.53894e-05 1.91411e-05 -3.66163e-05)
(-0.000139999 9.67191e-05 -0.000325346)
(3.62407e-05 -2.22085e-05 0.000108346)
(0.000106108 -6.28421e-05 0.00036353)
(1.50125e-05 -2.31513e-07 2.1513e-05)
(-0.000310603 -3.41812e-06 -5.46357e-05)
(-0.000369319 -8.95941e-05 -2.4535e-05)
(-0.000251217 -0.000128974 4.18445e-05)
(-0.000157479 -0.000157153 5.248e-07)
(-1.20775e-05 -5.73805e-06 -1.88074e-06)
(-0.000290785 -4.1215e-07 -1.10928e-05)
(-0.000261798 4.26325e-07 1.60776e-05)
(1.82989e-06 -7.88729e-07 6.63572e-06)
(2.36697e-05 -5.88055e-06 1.80436e-06)
(8.37647e-06 -1.73689e-06 3.90099e-07)
(-1.39992e-05 -1.75564e-06 4.61922e-06)
(-2.08043e-05 -7.71611e-07 3.49585e-06)
(2.17864e-05 1.68198e-06 3.4923e-06)
(-5.10015e-06 -4.27265e-06 1.77646e-05)
(0.000239343 -7.4614e-05 -0.000119337)
(0.00110117 9.74291e-05 2.39975e-05)
(0.000207384 5.96028e-06 7.20624e-05)
(0.00118961 -6.25589e-05 -0.000548261)
(0.00275883 4.25902e-05 -0.000566092)
(0.000959467 -3.13538e-05 -0.000142082)
(-0.000222388 4.65601e-05 0.000196307)
(-5.06519e-05 7.09203e-05 0.000487304)
(-0.000636734 0.00119391 -0.00108952)
(6.9217e-05 -0.000791077 -0.000165685)
(0.00526839 -0.00581599 -0.0145967)
(0.00448575 -0.00108611 -0.00388455)
(-0.0162496 -0.00497455 0.00841817)
(-0.00783379 -0.00279143 0.00406771)
(-0.000540728 -0.000997286 -0.000222297)
(0.000302798 -0.000373836 -0.000217866)
(0.000375416 -0.000156748 2.21278e-05)
(1.41896e-05 -2.39868e-06 2.86009e-06)
(3.73927e-08 4.71874e-08 5.08502e-08)
(1.11884e-06 7.07781e-07 6.84561e-07)
(-1.23462e-06 -1.03582e-06 -5.33952e-07)
(-3.58531e-07 -7.47921e-07 2.71446e-07)
(-3.47477e-07 2.09517e-07 -6.63825e-07)
(-2.36564e-06 4.90476e-07 -4.13441e-06)
(9.67862e-07 -4.11073e-08 2.01639e-06)
(-3.1835e-07 -1.38648e-07 -3.50746e-07)
(-1.82071e-07 1.04977e-09 -2.23605e-07)
(-5.94984e-06 1.90932e-06 -1.38239e-06)
(-4.42638e-06 -1.71018e-07 6.13109e-07)
(7.33958e-06 2.02731e-06 7.05784e-06)
(-2.524e-06 -6.27475e-07 -2.21232e-06)
(-1.34849e-05 -2.47976e-06 -9.93509e-07)
(-1.36065e-05 -3.0824e-06 2.73175e-06)
(5.61618e-07 -1.12716e-06 1.21096e-06)
(3.61802e-07 -1.08107e-07 1.27519e-07)
(4.4807e-08 -8.79968e-09 7.35336e-09)
(4.1984e-08 5.8099e-09 -2.00533e-08)
(-3.03022e-07 -5.56684e-08 2.75927e-07)
(-1.21625e-06 1.10777e-08 6.19959e-07)
(1.10795e-06 1.15004e-06 3.98282e-06)
(1.1456e-06 -1.43962e-06 -6.64687e-07)
(0.000464278 5.35635e-05 -9.60315e-05)
(3.41071e-05 7.35894e-06 1.20555e-05)
(0.000244793 -7.22519e-05 -0.000257933)
(0.000582507 -6.30393e-05 -0.000169833)
(0.000454531 -7.80546e-05 -0.0001434)
(2.24337e-05 -5.31893e-06 -2.8509e-05)
(7.5869e-06 -9.18882e-06 0.000121904)
(-0.000261613 0.000199305 -0.000196998)
(-0.000137814 0.000147118 0.000251005)
(0.000165693 -0.00185173 -0.00327227)
(0.000659054 -0.000769266 -0.00185169)
(-0.00342052 -0.000498562 0.00148773)
(-0.00280532 -0.00122004 0.000106926)
(6.95271e-05 -0.00056787 -0.000215447)
(0.000364933 -0.000224797 3.64523e-05)
(7.50151e-06 -3.4562e-06 2.77693e-06)
(4.46734e-08 -3.03816e-08 7.1034e-08)
(-8.94565e-10 -2.27981e-10 5.12392e-10)
(-7.54861e-09 -4.7276e-09 -6.85522e-09)
(1.0561e-08 4.52299e-09 8.2125e-09)
(8.88376e-09 3.69486e-09 6.27527e-09)
(-3.04879e-10 -9.9496e-10 2.80574e-10)
(1.1906e-08 -1.74866e-09 1.48354e-08)
(-5.75164e-09 -2.44957e-10 -7.27214e-09)
(-6.17447e-09 4.97742e-10 -9.76443e-09)
(2.02399e-08 -4.23189e-09 2.26628e-08)
(-1.82197e-07 1.74515e-07 -8.80399e-08)
(3.07702e-08 3.95412e-08 -7.48654e-09)
(-2.21219e-07 4.98564e-08 -2.76805e-07)
(-5.15486e-09 3.61631e-09 -1.18809e-08)
(-3.63139e-08 -1.44973e-08 -2.16223e-08)
(-3.88598e-08 -7.00802e-08 4.58534e-08)
(1.84911e-08 -2.59956e-08 2.43326e-08)
(2.99138e-09 -1.86722e-09 1.96693e-09)
(1.50114e-10 -4.57839e-11 4.68311e-11)
(-2.28549e-11 4.40934e-12 -1.70859e-11)
(-2.76432e-10 -2.92426e-10 1.28569e-09)
(1.30049e-08 1.05162e-08 -3.36648e-08)
(-1.04138e-07 -1.96928e-07 6.39723e-08)
(-2.28727e-06 2.30216e-06 8.27118e-06)
(1.34253e-05 2.68414e-06 -1.46028e-05)
(1.43393e-05 8.3912e-06 -3.38955e-06)
(9.41782e-06 -1.51141e-05 -1.58419e-05)
(2.65744e-05 -7.99464e-06 -1.61145e-05)
(3.98053e-06 -9.34592e-07 -3.07659e-06)
(-4.2954e-06 7.43744e-07 8.88689e-06)
(4.55631e-06 -2.88691e-06 6.72779e-06)
(-7.80055e-06 3.87881e-06 -3.01466e-06)
(-0.000162169 9.28294e-05 1.41241e-05)
(6.92913e-05 -0.000193935 -0.000290014)
(-5.12915e-05 -0.00023896 -0.0004431)
(-1.92145e-05 7.22873e-05 0.000296658)
(4.41818e-05 -0.000198554 6.13309e-05)
(0.000168387 -0.000246098 2.1077e-05)
(5.33556e-06 -6.17844e-06 1.6049e-06)
(3.77866e-08 -3.05337e-08 3.895e-08)
(-9.49124e-10 2.92528e-09 -5.98435e-10)
(4.79995e-11 1.49519e-10 -1.24892e-11)
(4.7726e-11 2.11944e-11 3.46015e-11)
(-3.69259e-11 -6.67422e-12 -3.42636e-11)
(-4.81401e-11 -6.29243e-12 -4.80907e-11)
(8.02377e-12 1.71779e-12 1.05018e-11)
(-1.32765e-11 3.09256e-12 -6.25108e-12)
(1.24992e-11 1.75559e-12 1.34139e-11)
(2.10243e-11 1.55299e-14 3.23343e-11)
(8.66679e-11 -7.85377e-12 1.48728e-10)
(-5.23683e-10 3.53796e-10 -6.24195e-10)
(-4.96032e-11 4.46975e-10 -6.20799e-11)
(-2.19021e-09 -8.06203e-10 7.08124e-10)
(-4.28946e-11 8.43994e-12 -5.92328e-13)
(1.93669e-10 -1.22452e-10 -2.84662e-10)
(8.46902e-10 -9.08152e-10 -1.24791e-10)
(2.54277e-10 -2.77724e-10 9.01987e-11)
(1.29676e-11 -1.40879e-11 1.30574e-11)
(-2.53945e-13 -1.74377e-13 7.22766e-13)
(3.93069e-13 1.36034e-13 -1.11193e-13)
(-5.11546e-12 -8.74696e-13 -2.54792e-12)
(-5.56464e-12 -8.53469e-12 9.29077e-11)
(3.57194e-10 2.09648e-10 -4.45978e-10)
(5.08633e-09 4.09006e-09 3.39536e-09)
(3.59914e-09 -5.64866e-08 -4.42619e-07)
(-1.09439e-06 -8.76974e-07 1.65229e-06)
(-3.35899e-07 -1.44864e-06 -3.74279e-07)
(1.47187e-07 -1.31632e-07 -2.89087e-07)
(1.47677e-08 -1.39769e-09 -3.3549e-08)
(-4.11724e-10 -6.98132e-10 1.36077e-09)
(8.93298e-08 -1.16246e-07 -1.48641e-07)
(1.15359e-07 -4.55931e-08 -2.06163e-07)
(-1.89244e-07 -2.64228e-07 -6.4462e-07)
(-1.23091e-06 -1.4172e-07 -1.05745e-06)
(4.7558e-07 -3.87833e-07 -5.27682e-07)
(2.66622e-06 1.44387e-06 7.70443e-06)
(3.83925e-06 -2.99174e-06 3.62929e-06)
(-2.68149e-08 -5.74837e-07 1.03523e-07)
(-2.00006e-08 -6.36483e-09 -4.83451e-09)
(-9.45048e-11 4.2106e-11 -7.0053e-11)
(-6.01001e-12 -1.2775e-11 1.1022e-11)
(-2.03017e-12 -7.60231e-13 5.14164e-13)
(-3.16641e-13 -3.48041e-14 -7.51253e-14)
(4.65131e-14 -2.24583e-15 3.80346e-14)
(1.15928e-13 -1.43634e-14 1.43922e-13)
(-2.13638e-15 7.62708e-16 -3.05918e-14)
(-8.2771e-14 7.65387e-15 -1.67987e-13)
(-1.12664e-14 -5.15888e-15 -1.59801e-14)
(-9.22518e-14 -1.32944e-14 -9.85658e-14)
(1.50185e-13 1.73125e-14 2.51703e-13)
(-7.73563e-13 2.80059e-13 -1.75406e-12)
(-3.3995e-12 2.61074e-12 -2.1772e-12)
(6.19143e-13 -9.7498e-12 2.09543e-12)
(-1.90341e-13 -7.67282e-14 1.52157e-13)
(3.54677e-13 -5.81249e-13 -8.82542e-13)
(5.08054e-12 -5.74954e-12 -4.09429e-12)
(1.58817e-12 -1.25569e-12 -6.50802e-13)
(1.02707e-13 -3.0268e-14 2.18353e-14)
(7.07918e-16 1.13926e-15 1.32187e-14)
(-1.1763e-15 9.05264e-16 -4.41984e-16)
(1.28826e-14 9.88122e-15 -1.38505e-14)
(-1.03945e-13 -1.05303e-13 -2.55376e-14)
(-9.22469e-13 4.01308e-13 1.37689e-12)
(2.61525e-11 7.06784e-12 -7.50416e-12)
(-6.23894e-10 -3.49254e-10 -4.20756e-10)
(-8.14e-10 4.47358e-10 6.41496e-09)
(-1.07072e-08 -5.5783e-09 3.28472e-10)
(-1.7368e-09 -4.02583e-10 -2.18041e-09)
(-1.42842e-10 1.22968e-10 -1.06269e-10)
(-6.25108e-12 1.40076e-11 2.34345e-11)
(-5.06956e-11 -1.51041e-11 -2.63177e-10)
(2.72158e-09 -2.0001e-09 1.47542e-09)
(-3.32125e-09 3.36344e-09 4.96269e-09)
(1.64138e-09 3.38839e-09 1.15575e-08)
(4.84017e-10 -4.24601e-11 3.62816e-11)
(-4.12222e-08 9.36341e-10 2.34404e-09)
(-5.64035e-08 -1.15592e-09 7.23667e-09)
(-7.53521e-09 2.87932e-10 1.25693e-10)
(-2.15828e-10 5.71551e-11 -2.21511e-11)
(4.00913e-12 2.60306e-12 -6.72523e-13)
(7.04383e-13 6.83406e-14 -2.79339e-14)
(4.15688e-14 4.43243e-18 -6.65039e-16)
(1.16025e-14 -2.822e-16 -2.82552e-15)
(5.54707e-15 8.54971e-17 1.14973e-15)
(1.64508e-15 1.06047e-17 2.49777e-15)
(3.36955e-15 -1.93128e-15 3.0803e-15)
(-1.28306e-14 8.10576e-16 -1.56042e-14)
(5.01584e-15 -2.31674e-16 2.98304e-15)
(-8.22188e-15 -3.44156e-15 -8.21465e-15)
(-3.90727e-14 -1.03981e-14 -3.62916e-14)
(1.33478e-14 2.40275e-15 8.37747e-15)
(-4.02356e-14 -1.80395e-16 -3.15243e-14)
(1.73578e-14 -1.41795e-14 2.04017e-14)
(-1.55584e-15 2.97106e-15 9.26822e-16)
(1.20669e-16 -8.4513e-16 2.80485e-16)
(7.4832e-15 -1.65625e-14 8.70706e-16)
(3.78957e-15 -6.52358e-15 7.75508e-16)
(6.06819e-16 5.7397e-16 3.09677e-16)
(9.28005e-16 -5.8168e-17 3.05347e-15)
(3.38107e-16 -2.00044e-15 1.67154e-15)
(6.31052e-15 3.40092e-15 -6.52448e-15)
(-1.34006e-15 -1.62639e-15 1.20083e-15)
(-3.29048e-16 8.99082e-16 -1.49396e-17)
(1.52475e-14 -3.94253e-15 -1.23085e-14)
(-1.29794e-12 -5.56896e-13 1.41026e-13)
(6.72035e-12 1.77665e-11 8.97901e-12)
(-8.49784e-11 7.41755e-11 3.13867e-11)
(-3.42461e-11 1.56419e-11 5.77788e-12)
(-2.77922e-12 1.10932e-12 2.04494e-12)
(-3.81401e-14 -6.11572e-14 1.72034e-13)
(1.02039e-13 -3.59592e-13 1.21622e-13)
(-4.93382e-12 1.1067e-11 3.7141e-12)
(1.50456e-11 -1.32118e-11 -1.84028e-11)
(1.14335e-11 -3.36888e-12 -2.79585e-11)
(2.1637e-12 -5.83995e-13 2.4868e-12)
(-1.48992e-10 2.09843e-11 -2.87056e-11)
(-3.54741e-10 3.8508e-11 6.043e-13)
(-4.71494e-11 4.99397e-12 4.21244e-12)
(-8.96341e-13 2.17385e-14 4.40024e-13)
(8.80557e-14 -2.02944e-14 2.12198e-14)
(7.47625e-15 -4.02934e-16 -3.23611e-16)
(-7.11733e-15 1.72552e-15 1.42414e-15)
(-1.6303e-15 1.3876e-15 -2.08902e-15)
(8.15614e-15 3.63493e-15 -3.08793e-15)
(-3.84197e-15 -9.30958e-16 -1.13396e-15)
(4.20875e-15 2.60797e-15 3.04229e-15)
(-1.38862e-14 1.66716e-15 -1.45408e-14)
(1.92977e-15 -4.9371e-16 -5.1694e-16)
(2.98602e-15 4.19375e-16 -3.41995e-15)
(-3.88416e-16 -4.93329e-17 -2.22278e-15)
(-5.15311e-15 -2.17563e-15 -3.31795e-15)
(-1.38855e-15 -2.80333e-15 5.41293e-15)
(1.30218e-15 -4.44354e-15 -3.72549e-16)
(-3.03477e-15 -3.55478e-15 -4.83914e-15)
(-1.92559e-15 1.69027e-15 -5.79382e-15)
(4.64567e-15 -1.69917e-15 -1.81215e-17)
(7.20763e-15 -2.01204e-15 -6.35531e-16)
(5.3702e-16 3.47448e-16 -1.06645e-16)
(3.17861e-15 4.01761e-16 -3.04955e-16)
(4.05413e-15 1.50716e-15 -2.85578e-15)
(-3.14075e-15 1.75474e-15 -5.47155e-15)
(2.05027e-15 8.35747e-16 -1.06724e-16)
(-4.85497e-16 3.55598e-15 -1.32164e-15)
(1.69235e-15 -1.86752e-15 -3.35574e-15)
(-3.42824e-15 6.13153e-16 1.96644e-15)
(1.2938e-14 4.37339e-14 6.40633e-15)
(-4.6451e-13 9.72618e-13 6.5545e-13)
(-2.76493e-13 1.76552e-13 2.83488e-13)
(-1.81635e-14 -1.37772e-14 2.16475e-14)
(-5.82811e-16 2.02265e-15 2.64368e-15)
(9.20838e-16 -1.17942e-15 9.60319e-16)
(-2.64628e-15 -1.68085e-14 -2.47308e-14)
(-1.30053e-14 4.11246e-15 6.58719e-14)
(-1.85606e-14 -1.22029e-14 5.89202e-14)
(9.57685e-17 -6.53531e-15 1.15152e-14)
(-9.04098e-14 1.2326e-13 -1.37733e-13)
(-1.45603e-13 1.82301e-13 9.49206e-14)
(1.02151e-13 -1.88512e-14 1.00788e-13)
(1.65772e-14 -5.78466e-15 9.87571e-15)
(-4.74352e-15 -2.80656e-15 2.38187e-15)
(-9.73139e-16 -3.37972e-16 -5.03107e-18)
(-1.07944e-14 4.35363e-15 -3.9078e-15)
(-8.49219e-15 -5.62868e-16 -1.16648e-15)
(-1.02381e-14 2.82704e-15 -2.63949e-15)
(1.59934e-15 -1.29895e-15 -3.32562e-16)
(2.83496e-15 -4.21868e-15 2.38749e-15)
(2.673e-14 -5.89229e-15 1.95909e-14)
(1.632e-14 -6.98362e-16 1.17282e-14)
(-1.42399e-14 -3.03881e-15 -6.81234e-15)
(-1.94613e-15 -1.38435e-15 -4.64649e-16)
(-8.97579e-15 -2.97057e-15 -5.45669e-15)
(1.45943e-15 4.05815e-16 1.90496e-15)
(2.07257e-15 2.36833e-15 6.48125e-16)
(-1.10454e-14 -2.31615e-15 -2.62158e-15)
(-4.68655e-15 5.23017e-17 -8.62305e-16)
(9.00703e-15 -2.2807e-15 1.74775e-15)
(2.39108e-15 -2.03402e-15 1.53811e-15)
(8.59044e-16 -5.87449e-17 2.6809e-16)
(5.39671e-15 -8.10397e-16 -1.70601e-15)
(-1.51959e-15 4.50714e-15 4.71391e-15)
(4.89053e-15 -5.07155e-15 2.56173e-15)
(7.09195e-17 6.73659e-16 -1.03089e-16)
(5.73215e-16 3.10622e-15 -1.6993e-15)
(1.71947e-15 -2.63452e-15 -2.11384e-15)
(-1.77102e-15 -2.57221e-16 1.07452e-15)
(-1.20215e-15 3.6969e-15 -4.10758e-15)
(-9.22342e-15 1.31185e-14 7.45091e-15)
(-3.71402e-15 5.78231e-16 1.18405e-14)
(2.45128e-15 3.58848e-15 3.03472e-16)
(3.76444e-16 -4.08345e-15 -1.64452e-15)
(-1.26259e-15 9.4301e-16 4.98952e-16)
(1.56129e-15 -1.36155e-15 -3.88951e-16)
(1.11593e-15 2.1427e-16 -1.05649e-16)
(-1.37668e-15 6.29538e-18 -6.46899e-17)
(-2.11593e-15 6.86295e-16 -6.32168e-16)
(7.24004e-17 2.17951e-15 -4.5538e-15)
(1.02551e-14 -3.12462e-16 -6.09948e-16)
(1.31854e-14 -3.37805e-15 5.28668e-15)
(-3.38334e-15 1.58099e-15 -2.66739e-15)
(4.4817e-15 -1.90475e-16 1.86177e-16)
(-1.41607e-15 2.89651e-16 7.14701e-16)
(9.65592e-15 -9.57618e-16 2.51616e-15)
(9.60483e-15 -1.23801e-15 1.10582e-15)
(-5.24891e-15 -1.567e-16 9.51904e-16)
(-1.71342e-15 -2.58555e-17 -2.10831e-15)
(2.61511e-15 -3.69446e-15 -1.34791e-15)
(-9.40758e-15 -1.55982e-15 -9.76387e-15)
(-9.61396e-16 2.89407e-15 5.09738e-16)
(-7.51052e-15 2.2357e-17 -5.37027e-15)
(-9.96243e-15 -2.22755e-15 -5.41995e-15)
(3.77365e-15 2.05658e-15 -2.66918e-15)
(-2.89555e-16 -4.15413e-16 -7.43336e-16)
(3.62852e-15 1.12485e-15 8.54612e-16)
(-2.50935e-15 -1.73835e-17 -3.02579e-16)
(-5.72573e-15 1.1408e-15 -2.97956e-16)
(4.5553e-15 3.99607e-16 6.99005e-16)
(1.41054e-16 1.12198e-15 9.88544e-16)
(-4.17776e-15 2.55394e-15 1.77859e-15)
(-2.57352e-15 1.55546e-15 9.17003e-16)
(5.34281e-17 1.99108e-15 -2.96368e-16)
(-2.15131e-15 4.45623e-15 4.10625e-16)
(4.11156e-15 -1.42055e-15 2.57249e-15)
(-9.54705e-17 -4.05029e-16 -2.85838e-15)
(2.00233e-15 4.00059e-15 2.65479e-15)
(2.64947e-15 1.0882e-15 2.57051e-15)
(-1.17286e-15 1.65539e-15 2.02456e-15)
(8.19562e-16 -3.0006e-15 -8.93715e-16)
(5.18352e-15 -4.7446e-16 3.60857e-15)
(6.85982e-15 -1.45769e-15 4.96674e-15)
(2.52948e-15 -1.22139e-15 1.6616e-15)
(-1.36e-15 1.24647e-15 8.51713e-16)
(-2.07496e-15 2.52588e-15 4.75234e-15)
(1.59133e-15 -2.67631e-15 1.55505e-15)
(1.56535e-15 -2.50572e-15 2.34576e-15)
(-3.91957e-15 1.00559e-15 2.32036e-15)
(-3.20064e-15 2.35723e-15 4.35222e-16)
(-4.98094e-15 2.256e-15 1.75782e-15)
(-6.0788e-15 4.45215e-15 3.04351e-15)
(1.08803e-15 -5.07561e-16 3.57085e-17)
(9.6039e-15 -3.23383e-16 4.20783e-15)
(7.46545e-16 -6.62808e-17 3.90357e-16)
(4.25012e-16 9.05054e-16 9.06175e-16)
(-5.30702e-15 3.14746e-15 1.75896e-15)
(1.89625e-15 -3.29111e-16 2.05523e-15)
(-1.19807e-15 9.79612e-16 3.55583e-16)
(-1.8235e-14 4.92277e-15 5.22548e-15)
(-2.9917e-15 5.0835e-15 -9.02835e-16)
(5.27306e-15 -7.276e-15 -8.88964e-15)
(3.43662e-15 1.1098e-16 3.86976e-15)
(-1.2398e-14 -4.73773e-15 -8.58171e-15)
(-5.52149e-15 -2.27719e-15 3.04862e-17)
(4.14569e-15 2.218e-16 -1.73209e-15)
(-5.45466e-17 -1.85841e-15 7.66308e-15)
(-5.29926e-15 4.12309e-16 -4.3241e-15)
(5.90217e-16 -1.16014e-16 6.12084e-17)
(-1.69086e-15 1.1861e-15 -3.00502e-16)
(5.40962e-16 1.58386e-15 6.72295e-16)
(6.82171e-15 3.47227e-15 6.09141e-16)
(-1.54527e-15 -7.28438e-16 7.7536e-16)
(-1.54015e-15 3.19213e-15 3.29685e-15)
(5.09206e-16 -2.58123e-15 -2.9672e-18)
(1.52604e-15 -1.33625e-15 -1.098e-16)
(-3.67043e-16 9.93596e-16 1.72588e-15)
(8.12062e-15 -3.61332e-15 2.70305e-15)
(1.11154e-15 -1.51795e-15 4.29166e-16)
(1.61209e-15 -4.57224e-15 4.0652e-15)
(1.21365e-15 -1.32498e-15 1.96331e-15)
(-7.46796e-16 3.00179e-15 5.12779e-15)
(2.80631e-15 1.59694e-15 2.12526e-15)
(-8.6239e-16 1.70983e-17 1.27243e-15)
(1.46771e-15 2.60735e-15 -1.45016e-15)
(2.13146e-16 1.01196e-15 7.77198e-17)
(-2.09659e-16 -3.28839e-16 -1.21238e-15)
(-3.47492e-15 4.37839e-15 5.01807e-15)