/*--------------------------------*- C++ -*----------------------------------*\
| =========                 |                                                 |
| \\      /  F ield         | OpenFOAM: The Open Source CFD Toolbox           |
|  \\    /   O peration     | Version:  5.0                                   |
|   \\  /    A nd           | Web:      www.OpenFOAM.org                      |
|    \\/     M anipulation  |                                                 |
\*---------------------------------------------------------------------------*/
FoamFile
{
    version     2.0;
    format      ascii;
    class       volScalarField;
    location    "50.4676134421789371";
    object      GradTVMean;
}
// * * * * * * * * * * * * * * * * * * * * * * * * * * * * * * * * * * * * * //

dimensions      [0 -1 -1 1 0 0 0];

internalField   nonuniform List<scalar> 
60000
(
-6.95472
-6.42584
-2.93004
1.05928
2.65164
1.09867
-0.190507
-0.419788
0.154293
-1.49433
-3.91346
-4.6874
-1.97268
0.577737
0.600416
0.65921
2.96136
4.99677
3.44798
-0.590886
-2.32036
-2.55114
-1.02866
4.74494
12.9612
16.8879
12.4205
3.21622
-3.75436
-4.28218
-1.70075
-1.8178
-4.40567
-6.18804
-5.91703
-0.906912
1.6003
0.0991849
-2.97614
-5.57319
1.36849
1.40344
0.51964
-0.517361
-1.06469
-0.616233
-0.00299386
0.276954
-0.123786
0.271221
0.772209
1.08186
0.699105
-0.17816
-0.860102
-1.50152
-1.86012
-1.61677
-0.201376
1.39535
2.08424
1.46808
0.222162
-1.15689
-2.14515
-2.42258
-1.7491
-0.676857
0.125238
0.338031
0.0763323
-0.211484
-0.122839
0.225576
0.655385
0.600927
-0.349505
-0.829718
-0.377482
0.616841
2.04158
3.22522
1.61327
-0.510653
-1.6527
-1.61197
-0.766498
0.377537
-0.105424
-0.528854
0.742913
2.5638
2.81953
0.758498
-1.75515
-3.61885
-4.77647
-4.50356
-1.07395
5.36509
10.0143
8.13678
1.41738
-6.01083
-9.92257
-9.29993
-4.91823
0.384884
4.03174
4.74817
2.80782
-0.117896
-1.61184
-0.768363
1.20688
2.51798
0.63819
-2.61839
-3.49904
-1.29583
0.436774
1.47015
1.00419
0.020474
-0.36391
-0.428842
-0.34032
-0.0486863
0.0568011
-0.404871
0.0667283
1.12289
1.57723
0.765759
-0.507035
-1.19853
-1.42173
-1.07133
-0.260563
1.69524
3.93179
3.92184
0.832822
-3.04155
-4.549
-3.57578
-1.368
1.11076
2.97356
3.27529
2.2933
0.967778
-0.135149
-0.420845
0.217774
1.02039
0.728318
-0.485556
-1.35839
-1.0248
-0.118169
0.2037
0.262743
0.0798123
-0.0283671
-0.0358612
-0.0329795
-0.0376772
-0.013359
-0.0681713
-0.0433812
0.178483
0.33031
0.248565
-0.00326465
-0.167061
-0.236548
-0.205654
-0.101147
0.152936
0.500072
0.765722
0.301722
-0.569771
-0.839735
-0.598347
-0.350941
-0.109428
0.344165
0.679237
0.588531
0.34991
0.129454
-0.0357671
-0.0742861
0.0929522
0.165941
0.0171239
-0.188901
-0.289481
-0.0309483
0.00197805
-0.000918372
-0.0106817
-0.00956633
-0.0048787
0.000437868
-0.000598841
-0.0126335
-0.0200634
-0.0147901
0.0155792
-0.0326574
-0.116683
-0.053221
0.0580105
0.037122
-0.0603563
-0.0556075
0.0174424
0.0487438
-0.0616441
-0.0656015
-0.0031046
0.106805
0.0861757
0.0469822
-0.00670054
-0.0265801
0.0685408
0.0998993
0.0305872
-0.00490622
-0.00286443
-0.00167503
-0.0141651
0.00326313
-0.000848691
-0.00186451
-0.0268056
0.00747756
0.0149246
0.00154761
-0.0133567
-0.0117941
-0.0089663
-0.00607891
0.00102133
-0.00540573
-0.0125969
-0.00537586
0.0045706
-0.0229081
-0.103302
-0.0677555
0.0512644
0.0785226
-0.00355061
-0.031443
0.0286083
0.0442689
-0.103567
-0.145397
0.0477211
0.156023
0.058825
0.0113989
0.0129222
0.00105836
-0.0256291
-0.00975326
0.00239812
-0.041341
-0.0647978
-0.0294747
-0.00507195
-0.00748546
-0.0107086
-0.0106949
0.006317
0.0047235
0.008792
0.00934993
0.00142468
-0.0011594
-0.00302347
-0.00438545
-0.00284409
-0.0040941
-0.00759478
-0.00401364
0.00242726
-0.001913
-0.0258634
-0.0183911
0.0207191
0.0457512
0.0258787
-0.025892
0.0437437
0.061174
-0.0600061
-0.105976
0.0389007
0.0755953
0.0180214
-0.00167094
-0.000613922
0.00228456
0.000916607
-0.0191054
-0.014148
-0.00172075
-0.0219756
-0.0300907
-0.0118357
-0.0048903
-0.00475023
-0.00831106
-0.00361199
-3.67851e-05
0.00253924
0.00389675
0.00203768
0.000516232
-0.000598554
-0.000417572
-0.000828327
-0.00196362
-0.00332394
-0.00202271
0.00117186
0.000558647
-0.0048498
-0.00125803
0.00575439
0.0130471
0.0240573
-0.00956476
0.0202764
0.0678912
-0.0310819
-0.0499044
0.0344056
0.0262584
0.00199843
-0.00100592
0.000247625
-5.17222e-05
0.00119984
0.000420759
-0.0056914
-0.00478083
-1.27859e-05
-0.00433824
-0.00621486
-0.00367346
-0.00246519
-0.00254541
-0.00281586
-0.000526193
0.000305311
0.00102158
0.000686312
0.000146416
-0.000277381
-0.000211193
-1.50764e-05
-0.000302263
-0.000879326
-0.000305513
0.00102389
-3.43232e-05
-0.000317382
0.0016012
0.001432
0.000266333
0.00735723
0.0018235
-0.00618249
0.0333919
-0.0128406
-0.0243536
0.0174642
0.00596758
-0.00140775
-0.000652943
-0.00025412
3.11301e-05
-0.000101804
0.000343134
0.0002032
-0.000797576
-0.000809276
6.21554e-06
-0.00047919
-0.00100743
-0.000873225
-0.000653025
-0.000846875
-0.000205416
-6.95839e-05
0.000180132
0.0001245
8.85924e-05
-2.04211e-05
-3.91013e-05
1.84367e-06
5.13391e-05
-0.000228976
-6.63806e-05
0.000497646
-8.4723e-05
0.000106116
0.000937513
0.000417815
-0.000289596
0.000777679
0.00294374
-0.00608327
-0.00100727
-0.00357443
-0.0139177
0.000644248
-0.000720129
-0.000995164
-0.000287225
-3.35649e-05
8.26586e-06
-8.76536e-06
-1.471e-05
1.91411e-05
9.67191e-05
-2.22085e-05
-6.28421e-05
-2.31513e-07
-3.41812e-06
-8.95941e-05
-0.000128974
-0.000157153
-5.73805e-06
-4.1215e-07
4.26325e-07
-7.88729e-07
-5.88055e-06
-1.73689e-06
-1.75564e-06
-7.71611e-07
1.68198e-06
-4.27265e-06
-7.4614e-05
9.74291e-05
5.96028e-06
-6.25589e-05
4.25902e-05
-3.13538e-05
4.65601e-05
7.09203e-05
0.00119391
-0.000791077
-0.00581599
-0.00108611
-0.00497455
-0.00279143
-0.000997286
-0.000373836
-0.000156748
-2.39868e-06
4.71874e-08
7.07781e-07
-1.03582e-06
-7.47921e-07
2.09517e-07
4.90476e-07
-4.11073e-08
-1.38648e-07
1.04977e-09
1.90932e-06
-1.71018e-07
2.02731e-06
-6.27475e-07
-2.47976e-06
-3.0824e-06
-1.12716e-06
-1.08107e-07
-8.79968e-09
5.8099e-09
-5.56684e-08
1.10777e-08
1.15004e-06
-1.43962e-06
5.35635e-05
7.35894e-06
-7.22519e-05
-6.30393e-05
-7.80546e-05
-5.31893e-06
-9.18882e-06
0.000199305
0.000147118
-0.00185173
-0.000769266
-0.000498562
-0.00122004
-0.00056787
-0.000224797
-3.4562e-06
-3.03816e-08
-2.27981e-10
-4.7276e-09
4.52299e-09
3.69486e-09
-9.9496e-10
-1.74866e-09
-2.44957e-10
4.97742e-10
-4.23189e-09
1.74515e-07
3.95412e-08
4.98564e-08
3.61631e-09
-1.44973e-08
-7.00802e-08
-2.59956e-08
-1.86722e-09
-4.57839e-11
4.40934e-12
-2.92426e-10
1.05162e-08
-1.96928e-07
2.30216e-06
2.68414e-06
8.3912e-06
-1.51141e-05
-7.99464e-06
-9.34592e-07
7.43744e-07
-2.88691e-06
3.87881e-06
9.28294e-05
-0.000193935
-0.00023896
7.22873e-05
-0.000198554
-0.000246098
-6.17844e-06
-3.05337e-08
2.92528e-09
1.49519e-10
2.11944e-11
-6.67422e-12
-6.29243e-12
1.71779e-12
3.09256e-12
1.75559e-12
1.55299e-14
-7.85377e-12
3.53796e-10
4.46975e-10
-8.06203e-10
8.43994e-12
-1.22452e-10
-9.08152e-10
-2.77724e-10
-1.40879e-11
-1.74377e-13
1.36034e-13
-8.74696e-13
-8.53469e-12
2.09648e-10
4.09006e-09
-5.64866e-08
-8.76974e-07
-1.44864e-06
-1.31632e-07
-1.39769e-09
-6.98132e-10
-1.16246e-07
-4.55931e-08
-2.64228e-07
-1.4172e-07
-3.87833e-07
1.44387e-06
-2.99174e-06
-5.74837e-07
-6.36483e-09
4.2106e-11
-1.2775e-11
-7.60231e-13
-3.48041e-14
-2.24583e-15
-1.43634e-14
7.62708e-16
7.65387e-15
-5.15888e-15
-1.32944e-14
1.73125e-14
2.80059e-13
2.61074e-12
-9.7498e-12
-7.67282e-14
-5.81249e-13
-5.74954e-12
-1.25569e-12
-3.0268e-14
1.13926e-15
9.05264e-16
9.88122e-15
-1.05303e-13
4.01308e-13
7.06784e-12
-3.49254e-10
4.47358e-10
-5.5783e-09
-4.02583e-10
1.22968e-10
1.40076e-11
-1.51041e-11
-2.0001e-09
3.36344e-09
3.38839e-09
-4.24601e-11
9.36341e-10
-1.15592e-09
2.87932e-10
5.71551e-11
2.60306e-12
6.83406e-14
4.43243e-18
-2.822e-16
8.54971e-17
1.06047e-17
-1.93128e-15
8.10576e-16
-2.31674e-16
-3.44156e-15
-1.03981e-14
2.40275e-15
-1.80395e-16
-1.41795e-14
2.97106e-15
-8.4513e-16
-1.65625e-14
-6.52358e-15
5.7397e-16
-5.8168e-17
-2.00044e-15
3.40092e-15
-1.62639e-15
8.99082e-16
-3.94253e-15
-5.56896e-13
1.77665e-11
7.41755e-11
1.56419e-11
1.10932e-12
-6.11572e-14
-3.59592e-13
1.1067e-11
-1.32118e-11
-3.36888e-12
-5.83995e-13
2.09843e-11
3.8508e-11
4.99397e-12
2.17385e-14
-2.02944e-14
-4.02934e-16
1.72552e-15
1.3876e-15
3.63493e-15
-9.30958e-16
2.60797e-15
1.66716e-15
-4.9371e-16
4.19375e-16
-4.93329e-17
-2.17563e-15
-2.80333e-15
-4.44354e-15
-3.55478e-15
1.69027e-15
-1.69917e-15
-2.01204e-15
3.47448e-16
4.01761e-16
1.50716e-15
1.75474e-15
8.35747e-16
3.55598e-15
-1.86752e-15
6.13153e-16
4.37339e-14
9.72618e-13
1.76552e-13
-1.37772e-14
2.02265e-15
-1.17942e-15
-1.68085e-14
4.11246e-15
-1.22029e-14
-6.53531e-15
1.2326e-13
1.82301e-13
-1.88512e-14
-5.78466e-15
-2.80656e-15
-3.37972e-16
4.35363e-15
-5.62868e-16
2.82704e-15
-1.29895e-15
-4.21868e-15
-5.89229e-15
-6.98362e-16
-3.03881e-15
-1.38435e-15
-2.97057e-15
4.05815e-16
2.36833e-15
-2.31615e-15
5.23017e-17
-2.2807e-15
-2.03402e-15
-5.87449e-17
-8.10397e-16
4.50714e-15
-5.07155e-15
6.73659e-16
3.10622e-15
-2.63452e-15
-2.57221e-16
3.6969e-15
1.31185e-14
5.78231e-16
3.58848e-15
-4.08345e-15
9.4301e-16
-1.36155e-15
2.1427e-16
6.29538e-18
6.86295e-16
2.17951e-15
-3.12462e-16
-3.37805e-15
1.58099e-15
-1.90475e-16
2.89651e-16
-9.57618e-16
-1.23801e-15
-1.567e-16
-2.58555e-17
-3.69446e-15
-1.55982e-15
2.89407e-15
2.2357e-17
-2.22755e-15
2.05658e-15
-4.15413e-16
1.12485e-15
-1.73835e-17
1.1408e-15
3.99607e-16
1.12198e-15
2.55394e-15
1.55546e-15
1.99108e-15
4.45623e-15
-1.42055e-15
-4.05029e-16
4.00059e-15
1.0882e-15
1.65539e-15
-3.0006e-15
-4.7446e-16
-1.45769e-15
-1.22139e-15
1.24647e-15
2.52588e-15
-2.67631e-15
-2.50572e-15
1.00559e-15
2.35723e-15
2.256e-15
4.45215e-15
-5.07561e-16
-3.23383e-16
-6.62808e-17
9.05054e-16
3.14746e-15
-3.29111e-16
9.79612e-16
4.92277e-15
5.0835e-15
-7.276e-15
1.1098e-16
-4.73773e-15
-2.27719e-15
2.218e-16
-1.85841e-15
4.12309e-16
-1.16014e-16
1.1861e-15
1.58386e-15
3.47227e-15
-7.28438e-16
3.19213e-15
-2.58123e-15
-1.33625e-15
9.93596e-16
-3.61332e-15
-1.51795e-15
-4.57224e-15
-1.32498e-15
3.00179e-15
1.59694e-15
1.70983e-17
2.60735e-15
1.01196e-15
-3.28839e-16
4.37839e-15
-1.26939e-15
-1.59589e-15
1.47594e-16
5.61495e-16
1.08648e-15
1.52058e-15
-3.02466e-16
-1.80823e-16
-2.34698e-16
-1.37264e-15
-2.15417e-16
1.70561e-15
-1.07874e-15
-1.60054e-15
1.10483e-15
1.46395e-15
-6.49676e-16
-1.84236e-15
8.19888e-16
6.84712e-16
2.16754e-15
1.22068e-16
1.18055e-15
-1.17857e-16
2.40572e-15
-6.15401e-16
-3.35591e-15
2.2377e-15
-1.63291e-15
-7.98203e-16
1.87326e-15
1.20807e-15
1.23002e-15
-2.33487e-15
2.11587e-15
-6.83091e-16
3.89421e-15
3.39698e-15
-4.32082e-15
-2.76486e-16
1.65667e-15
-1.13527e-15
1.69829e-15
5.14741e-15
-1.17808e-15
-2.78376e-16
-1.19397e-15
2.57665e-16
-3.67086e-15
2.29751e-16
-3.1613e-16
5.14461e-15
1.28358e-15
-1.76165e-16
-1.22283e-15
1.16998e-15
2.22707e-15
-2.467e-15
1.405e-15
-1.12042e-15
2.56929e-16
1.5142e-16
1.83588e-15
-4.18654e-15
1.24583e-15
2.87478e-16
-8.88587e-18
8.09915e-16
3.47618e-16
3.12906e-15
-1.78885e-15
6.32445e-16
-4.85527e-16
6.23094e-16
1.0515e-15
-5.05423e-16
-6.28564e-16
5.52473e-16
1.68726e-16
-3.54421e-16
-1.29534e-15
-2.77403e-15
-1.7649e-15
-5.96813e-16
2.81271e-16
-3.49038e-16
-1.03359e-15
5.18812e-17
2.12817e-15
-3.20483e-15
-9.89003e-16
4.16764e-15
2.7295e-15
2.16858e-15
1.2633e-15
1.26666e-15
-4.2365e-15
-9.86743e-16
4.51849e-17
9.8529e-16
-1.99807e-15
-1.23182e-15
1.51714e-15
-5.77801e-17
1.13922e-15
4.50294e-15
-1.24913e-15
-1.73975e-15
-1.03103e-15
-1.01246e-15
-1.05915e-15
6.22973e-16
7.75918e-16
8.97153e-16
1.51125e-15
5.10343e-16
1.37074e-15
-7.44731e-16
4.97016e-16
1.04507e-15
-2.69921e-15
-8.19422e-16
1.43854e-15
8.25435e-17
-2.59945e-15
2.62205e-16
6.63164e-16
5.53218e-16
-8.45557e-16
-1.11057e-15
-1.57785e-16
1.57731e-15
-2.88725e-15
-1.8306e-15
-1.5492e-15
9.34161e-16
6.99302e-16
-1.0997e-16
3.0055e-16
4.48356e-16
1.88154e-15
-1.21303e-16
7.37079e-16
3.95266e-15
-1.12583e-15
-3.27217e-16
4.50577e-16
1.45448e-15
-1.43515e-15
1.20395e-16
-2.50945e-15
-1.80538e-15
1.15627e-17
-7.8537e-16
-8.16255e-17
-2.25759e-15
7.8884e-16
-1.26201e-15
-2.34985e-16
-4.95154e-16
-6.14906e-16
-7.09251e-16
2.236e-15
-9.22312e-16
2.33451e-15
-4.28564e-16
-3.34354e-16
7.76867e-16
5.3816e-16
-1.73965e-15
-6.36807e-16
-8.56871e-16
-6.61887e-16
-2.38562e-15
1.51696e-15
1.20219e-15
1.03268e-15
5.92241e-16
2.57401e-16
-2.0709
-3.05933
-2.49497
-0.0624547
1.96842
2.57201
2.80473
3.07363
2.53362
1.95785
1.64079
2.8836
4.66946
5.51247
6.27206
7.85034
9.0992
8.39995
5.37268
0.88935
-1.05754
0.0200052
0.254274
-1.98832
-1.54214
-1.33934
-3.1717
-4.96253
-2.72807
2.41671
6.19202
6.05787
3.4632
-0.774393
-2.48755
2.12041
5.31928
1.69604
-1.27335
-1.60057
1.48114
1.26789
0.414375
-0.673435
-1.56871
-1.89971
-1.26542
-0.379885
0.553382
0.759782
0.605699
-0.122606
-0.988786
-1.7073
-2.33618
-2.87756
-3.12143
-2.90023
-1.90155
-0.292762
0.854335
1.02362
0.525322
-0.104896
-0.671872
-0.728198
-0.335739
-0.031514
-0.0668339
-0.385851
-0.778536
-0.88013
-0.673546
-0.279772
0.367243
0.831634
-0.0135452
-0.261801
0.611579
1.20155
3.0058
3.00085
1.11995
-1.31219
-3.17939
-4.24451
-3.07026
-0.29322
2.54239
3.61234
3.01644
1.31417
-1.16452
-3.49543
-5.35416
-6.55529
-6.98928
-6.67712
-4.26617
1.28824
7.44165
9.23958
5.30519
-0.201101
-4.37273
-5.00837
-2.55125
0.131
0.81634
-0.503465
-2.49025
-3.36291
-2.20694
-0.062845
2.78152
5.14518
3.62132
-0.113091
-0.395465
1.33353
0.849699
1.23937
0.598414
-0.413516
-0.95019
-1.21558
-1.09376
-0.19324
0.828839
1.53571
1.23689
0.75947
-0.0711444
-0.995885
-1.57959
-1.69802
-1.50751
-1.36942
-0.798175
1.24891
4.0117
4.98997
3.30907
0.246851
-2.26913
-2.53247
-1.06009
0.586819
1.1338
0.617547
-0.116105
-0.423855
-0.0182333
0.751187
1.67611
2.26918
1.74663
0.172555
-0.655929
-0.142569
0.0464351
0.177887
0.144722
-0.0231689
-0.0988364
-0.115114
-0.148591
-0.0935189
0.0630484
0.218283
0.246427
0.188251
0.0685969
-0.0881683
-0.204937
-0.240355
-0.214869
-0.237049
-0.323479
-0.0669921
0.728552
1.04915
0.766619
0.141786
-0.483984
-0.687492
-0.466279
-0.0293756
0.255315
0.216103
0.0803737
0.0204041
0.0516474
0.122459
0.249995
0.430251
0.355336
0.0955516
-0.1246
-0.11649
-0.000409779
-0.0239921
-0.0417846
-0.0095443
0.02657
0.0231752
-0.000921941
-0.0207909
-0.00133368
0.00850943
-0.0168686
-0.0261836
-0.0259928
0.000674231
0.0274556
0.021215
0.0150625
0.0344402
-0.0189545
-0.114332
0.163482
0.250575
-0.0223286
-0.0634499
0.0137057
0.00124072
-0.0698945
-0.0610814
0.00843171
0.0137612
-0.0118439
-0.00442612
0.00555547
0.0067387
0.0276471
0.0622991
0.0417157
-0.00523765
0.00171525
-0.00676069
0.012191
-0.00243223
-0.0409676
-0.0209686
0.0207238
0.0177244
0.00169895
-0.00153747
-0.00180725
0.00219546
-0.0269953
-0.0625881
-0.049793
-0.00920125
0.0262889
0.0272617
0.0120686
0.0222277
0.035208
-0.0501777
0.0463206
0.164575
-0.07515
-0.104049
0.0582739
0.0887259
0.0196324
-0.0171331
-0.0157388
-0.00627318
-0.00775036
-0.00952262
-0.0127354
-0.0297035
-0.0165295
0.0135252
0.0123819
-0.025018
-0.0116877
0.0151638
0.00998352
0.010288
-0.00515908
-0.00790376
0.0102025
0.00901595
1.29759e-05
-0.000324945
0.00569745
-6.19186e-05
-0.00212567
-0.0280134
-0.0327121
-0.0083394
0.0109382
0.0131617
0.00247674
-0.00260707
0.0208663
-0.0231928
-0.00396769
0.109689
-0.0214881
-0.0684697
0.0323042
0.0389407
0.0064142
-0.0035074
-0.00390162
-0.00307335
-0.00236772
-0.00177467
-0.000528191
-0.00254219
-0.0139596
0.0024369
0.0088012
-0.00536057
-0.0191574
0.00206894
0.00173806
0.00625052
0.00622612
0.00342463
0.00594334
0.00418449
0.000733327
-0.00116119
0.0042643
0.00369804
-0.000179966
-0.00351478
-0.00895853
-0.0024942
0.00339845
0.00431253
0.00155308
-0.00502115
0.00827652
-0.0135076
-0.0163786
0.0515348
-0.00777743
-0.0326737
0.013187
0.0111908
0.00161259
-0.000855014
-0.000597395
-0.000233945
-1.57185e-05
1.03183e-05
-0.000423467
0.000221192
-0.00135747
-0.00144121
0.00287276
0.00138447
-0.00679926
-0.00570131
-0.00165262
0.00168366
0.00471232
0.0047247
0.00321117
0.00130944
0.000397554
-0.000281693
0.000503933
0.00336324
0.000655743
-0.000532829
-0.00044989
5.80514e-05
-0.000145451
0.000785344
0.00143431
-0.00245737
0.00320449
-0.0055157
-0.0104839
0.0163314
-0.00637351
-0.0134022
0.00396803
0.00232724
0.000167974
-0.000115755
-0.000104996
-6.97706e-05
-1.36258e-05
5.2442e-05
6.34469e-05
-5.45996e-06
6.30699e-05
-0.000130027
2.20813e-05
0.000203027
-0.000658807
-0.00316578
-0.001065
-0.000103716
0.00177399
0.00205314
0.000953364
0.000131753
-1.03289e-05
0.000162553
1.7457e-07
0.000565497
0.00108864
-0.00052126
-0.000714916
-0.000156838
-0.000260577
0.00021309
0.000653219
-0.000564083
0.000945332
-0.00141057
-0.0037627
0.00202268
-0.00345316
-0.0047941
0.00039669
0.000206754
-0.000131722
-9.43384e-05
-5.5265e-05
-4.68026e-06
-3.37973e-06
-6.83007e-06
7.0652e-06
-3.54839e-06
3.89674e-05
-7.59932e-06
-2.07164e-06
-0.000265373
6.60496e-06
-0.000554265
-0.000281386
-0.000192953
0.000309914
0.000438946
0.000112574
-1.02388e-05
-1.59079e-05
1.2476e-05
0.000194692
-0.000155043
0.000263413
-0.000128151
-0.000718981
-0.000187456
5.09499e-05
4.51996e-05
0.000107469
-3.01573e-05
0.000214389
-4.24579e-05
-0.000638877
-0.000713108
-0.00123359
-0.00110563
-0.000211484
-0.000154473
-0.00013053
-1.05084e-05
-3.45346e-07
2.04056e-08
4.16388e-08
-4.48277e-07
-8.18404e-07
4.00257e-07
4.66649e-06
-4.04957e-07
1.46929e-05
-2.61228e-05
-7.93022e-05
-1.05392e-05
-4.78112e-06
-0.000104416
3.23052e-05
2.52123e-05
9.33102e-07
-1.69855e-06
-2.86179e-07
1.12766e-06
1.07442e-05
-5.57604e-06
-1.28121e-05
9.38828e-06
-9.31861e-05
-0.000118766
2.66351e-05
1.77092e-06
-7.08101e-07
-6.14468e-06
8.12917e-05
5.04324e-05
-5.88219e-05
-0.000506644
-0.000332115
-8.23874e-05
-0.000182911
-0.000129517
-1.00392e-05
-1.74263e-07
8.24085e-10
3.52105e-11
-9.54217e-11
1.93163e-09
1.05614e-08
-2.00063e-08
8.48192e-09
1.84952e-07
1.74582e-08
-1.22255e-07
-3.25241e-06
-1.02528e-06
1.32912e-06
1.40953e-06
8.55967e-07
-2.15627e-08
-8.93869e-08
-1.61833e-08
-5.70704e-09
1.7921e-08
3.18162e-07
5.34855e-07
-6.25788e-08
-1.6827e-06
-1.09736e-05
-5.07298e-06
-5.87441e-08
-5.56622e-08
4.4085e-08
-6.31833e-07
-2.34724e-07
9.10419e-07
-2.65978e-06
-0.000212846
-1.86218e-05
1.23921e-06
-0.00013369
-1.20104e-05
-1.24778e-07
8.96424e-09
4.21534e-10
2.67499e-12
-4.21648e-12
1.651e-11
-2.90397e-11
2.02185e-10
-4.07584e-10
1.24251e-10
2.75465e-11
-5.91339e-10
6.80417e-09
1.6298e-07
1.25509e-08
3.89506e-08
2.22987e-08
-7.31689e-09
-1.23245e-09
-6.51639e-11
2.90761e-11
-2.94939e-10
8.49406e-10
-7.57345e-10
-2.39963e-10
7.38768e-10
-4.22382e-08
-4.20371e-08
-4.25223e-09
-7.88546e-10
-5.96037e-10
3.8842e-09
1.34947e-09
-3.81888e-08
9.78899e-07
-5.7846e-07
2.33484e-06
-9.46413e-07
-1.8292e-06
-4.80919e-08
3.63105e-09
2.08619e-10
4.89957e-12
-8.07243e-15
3.018e-14
-2.0269e-13
-8.77773e-13
-4.55768e-13
2.38267e-12
-1.56897e-12
2.1467e-13
-8.8695e-12
1.55523e-10
-2.64948e-10
2.43888e-11
-1.30076e-11
-2.09723e-10
-9.41689e-11
-3.98893e-12
3.81651e-15
1.43213e-14
9.10631e-13
-8.68219e-12
-4.19471e-12
2.87254e-13
-2.80087e-12
5.57362e-12
-2.25135e-10
-5.18994e-11
-6.00937e-12
1.01526e-12
-6.25378e-12
-1.63756e-11
2.93976e-10
-3.63663e-09
-2.25701e-10
6.64956e-09
1.48711e-08
5.04809e-09
8.25068e-10
4.15225e-11
8.73541e-13
6.69075e-15
-1.149e-16
-2.29799e-15
-1.82399e-15
1.03441e-14
-5.12125e-15
-5.27221e-15
9.02645e-15
6.65024e-15
-9.32247e-14
1.00158e-12
-2.53981e-12
3.9473e-14
-1.1413e-12
-1.76876e-12
-3.54939e-13
-9.36908e-15
2.55905e-16
-1.39554e-15
-5.29362e-16
2.51157e-14
2.71882e-14
-4.71631e-16
-6.73636e-14
1.35148e-12
6.37455e-13
-2.30319e-13
-4.80914e-14
9.68317e-16
2.72062e-14
-1.94295e-13
-3.38324e-13
1.2665e-11
-9.13449e-13
3.00993e-11
2.7572e-10
8.72679e-11
3.02285e-12
-4.3214e-13
-3.11397e-14
3.15034e-16
1.47238e-16
-1.774e-15
5.59469e-15
-8.48284e-15
-3.41593e-15
2.04911e-16
-3.89084e-15
2.23477e-15
-1.54156e-15
8.59929e-15
-2.0152e-14
1.26818e-15
-1.09261e-14
-9.03809e-15
-7.314e-15
2.53654e-16
-1.69864e-15
9.9738e-16
-1.022e-15
1.16655e-15
4.32461e-17
6.35061e-16
-3.23125e-16
1.93244e-14
2.97696e-14
1.45923e-15
3.53494e-15
-4.10431e-15
4.50399e-15
2.72637e-15
-2.95836e-15
-1.69157e-14
-1.13425e-14
8.63767e-14
1.66054e-12
-8.20311e-14
-1.04194e-13
-9.82582e-15
-4.52122e-16
-1.54399e-15
1.52128e-15
-7.44371e-15
1.73332e-15
-2.25949e-15
9.22073e-17
-2.68209e-15
5.00761e-16
-1.21767e-15
1.05162e-15
-8.18636e-16
3.42779e-16
1.52032e-16
-1.61159e-15
-2.32646e-15
-6.87615e-15
-9.23146e-16
9.33052e-16
2.41367e-15
4.14557e-16
2.62326e-15
-5.5662e-15
-1.14882e-15
1.85619e-15
-3.83123e-15
8.92439e-16
3.72616e-16
-1.04563e-15
9.27767e-17
-2.30152e-17
-1.42847e-15
-7.78304e-16
-3.3498e-15
2.79907e-15
9.08496e-16
-2.04655e-16
-8.33325e-15
4.85719e-15
-1.77258e-15
1.2916e-15
-1.31687e-15
1.30717e-15
3.11033e-16
-4.41966e-17
-6.33469e-15
8.20597e-15
8.35271e-16
-1.7661e-15
2.93805e-16
1.3501e-15
2.28065e-15
-3.99349e-16
-1.21493e-15
2.1241e-15
3.98156e-15
1.30124e-15
-1.35081e-16
2.06354e-15
1.49388e-15
-1.88245e-15
1.56864e-15
2.45308e-16
1.41618e-15
-3.45766e-15
-3.73797e-15
-1.85796e-15
-5.64229e-15
1.20732e-16
-4.41876e-16
-1.08955e-16
-2.01838e-15
6.82636e-17
-8.04604e-16
-4.54475e-16
3.80407e-16
-9.33436e-16
-2.62599e-15
7.31283e-16
3.90001e-15
-1.26596e-15
1.34092e-15
-5.27775e-16
1.70659e-15
-1.69732e-15
3.58803e-15
-1.13349e-14
-5.72045e-15
-3.93153e-16
1.34379e-15
-4.8219e-15
1.4149e-15
-1.09177e-15
-2.13867e-15
1.46211e-15
-9.40144e-16
1.34379e-15
2.41606e-15
3.75321e-16
1.98169e-15
-1.59685e-15
-5.43426e-16
-2.19329e-15
1.78684e-15
-4.57453e-15
-1.72846e-15
2.68423e-15
1.39887e-15
-8.39292e-16
1.03913e-15
1.96373e-15
-2.5657e-15
-4.2472e-15
-1.31251e-15
2.82294e-15
-4.28625e-15
3.3036e-15
-2.56825e-16
1.34507e-15
-1.36664e-15
-6.94166e-16
6.72358e-16
-5.88509e-16
-8.50372e-17
7.24317e-15
4.89126e-16
-3.21929e-16
-3.75098e-15
3.38516e-16
-5.33275e-16
3.89077e-15
-7.13041e-16
4.86255e-15
-7.90222e-16
-1.55461e-16
8.69569e-16
1.16091e-15
-1.31431e-15
1.39139e-15
2.51293e-15
-6.42166e-15
-7.10797e-16
3.00412e-15
-4.9108e-16
2.08396e-16
-4.8692e-15
9.86155e-16
-2.25427e-15
1.07311e-15
9.32387e-16
-2.64965e-15
5.4961e-16
-1.37863e-15
1.72276e-15
-3.05182e-15
1.74871e-15
-3.34513e-15
-3.015e-15
-1.55637e-15
-7.16926e-16
7.95357e-16
1.72328e-16
6.59431e-16
2.59203e-16
3.11583e-15
-1.53109e-16
2.38719e-16
2.44593e-15
1.88451e-15
3.14773e-16
8.06389e-17
1.80619e-16
-3.28937e-15
-7.89159e-16
-5.75441e-16
-1.81741e-15
-2.41169e-16
2.31605e-15
-1.09141e-16
-2.55522e-15
1.90267e-15
3.37848e-15
4.09899e-16
-3.89264e-16
1.34337e-15
-3.13513e-15
1.27785e-15
-2.0439e-15
-4.64242e-15
-5.88757e-16
5.98225e-16
6.94915e-16
-5.53578e-16
-1.87403e-15
3.77226e-16
-2.02527e-15
-2.01683e-17
1.55579e-15
-1.14536e-15
1.62769e-16
-9.80855e-16
1.77305e-16
-2.9035e-16
-1.10267e-15
2.76376e-15
3.98232e-15
2.52664e-15
8.17284e-16
1.00661e-15
-4.42416e-15
-3.06238e-17
6.71089e-17
5.5399e-16
4.55227e-16
7.24101e-16
8.44053e-16
7.45818e-16
1.67459e-15
1.79812e-15
2.29121e-15
3.289e-16
-3.89665e-16
-1.73366e-17
-1.2099e-16
-2.14452e-15
-2.27642e-15
9.25716e-16
9.27339e-17
1.54151e-15
-5.68737e-16
-1.00597e-15
-5.96408e-17
-5.7975e-16
-1.0976e-15
1.09961e-15
-6.03611e-17
-1.59208e-16
-2.02606e-15
1.65624e-15
9.56041e-16
-7.65534e-17
7.76484e-16
1.40024e-15
-8.55592e-16
4.1319e-16
3.14198e-15
3.08191e-15
-3.74696e-16
-3.07362e-16
5.26444e-16
-6.5594e-16
-1.1563e-15
1.27168e-16
2.04589e-15
-6.42641e-16
-5.51656e-16
-1.29005e-15
2.10627e-15
2.54608e-15
2.0309e-15
-1.05122e-15
-7.62939e-16
4.96796e-16
9.46496e-16
-1.93029e-15
2.25111e-15
1.25653e-15
-4.82636e-16
-1.41212e-15
-8.16226e-16
8.70868e-16
-6.08623e-16
1.24397e-16
4.7643e-16
-2.65697e-15
1.66507e-15
1.2828e-15
1.64556e-16
5.04089e-16
7.29447e-16
3.52771e-16
1.38017e-16
1.74136e-15
-4.2864e-16
-1.06067e-15
1.17346e-16
1.48095e-15
-3.73131e-15
-2.83314e-16
9.2063e-16
-8.87692e-16
-1.85967e-15
1.04467e-15
-4.92202
-5.92474
-1.59175
2.10319
2.87785
1.91872
0.769174
-0.935585
-1.22325
0.688935
2.76541
3.32824
2.78535
2.53105
4.39483
6.04522
7.1836
8.44551
9.5755
5.59948
-3.56543
-5.74424
-2.72364
-4.69978
-7.84141
-8.64263
-6.83709
-3.50217
1.08899
5.21622
7.32841
6.30934
3.19092
0.0409618
-0.737594
1.9927
4.55735
4.67321
3.89956
0.363608
2.66219
2.36773
0.632248
-0.42422
-0.515487
-0.272114
-0.0553236
0.204515
0.42428
0.376701
0.0667225
-0.308195
-0.608558
-0.857204
-1.18866
-1.43098
-1.51406
-1.60212
-1.68062
-1.15139
0.23372
1.24183
1.06496
0.602641
0.651956
0.633319
0.422047
0.1165
-0.27966
-0.684066
-0.89102
-0.795804
-0.501016
-0.135632
0.223033
0.224905
-0.545707
-1.13781
-0.450282
1.4145
4.93181
5.27933
2.09364
-0.647682
-1.29614
-0.990694
-0.593007
-0.253368
0.604175
1.30668
1.29391
-0.126392
-1.79679
-3.22744
-4.28505
-4.74003
-4.48422
-4.22575
-4.57849
-3.44656
1.64103
7.01953
6.45047
1.48177
-0.140837
0.144073
0.425483
-0.0398965
-1.47412
-3.20657
-4.13627
-3.35563
-1.19568
1.09006
2.77158
3.46981
1.82164
-1.26607
-1.70585
2.02381
1.4928
1.91885
0.883581
-0.38688
-0.783123
-0.733528
-0.577678
-0.527402
-0.227404
0.194438
0.508296
0.052232
-0.747056
-1.35981
-1.61461
-1.5237
-1.17271
-0.937367
-0.989678
-0.602992
1.14992
3.55479
3.43734
1.0131
-0.433723
-0.492695
-0.122841
-0.11735
-0.615292
-1.19243
-1.46007
-1.09629
-0.10974
0.976476
1.6084
1.68444
1.14738
-0.0716606
-0.950545
-0.0565849
0.140864
0.297066
0.233825
-0.011906
-0.121276
-0.123842
-0.0976245
-0.106072
-0.109311
-0.0152569
0.107127
0.0793388
-0.0920375
-0.235507
-0.283934
-0.272041
-0.21014
-0.204222
-0.290786
-0.328913
0.0302581
0.736383
0.840995
0.426124
-0.0358363
-0.190254
-0.0674977
0.0294031
-0.0404266
-0.160966
-0.230765
-0.227199
-0.0983829
0.108207
0.267922
0.314506
0.249299
0.0613776
-0.16146
-0.159443
0.00409086
-0.0357529
-0.0382948
-0.0110855
-0.00389593
-0.000537686
0.00393353
-0.00144172
-0.0210455
-0.0222034
-0.00233304
0.00265044
-0.000534315
0.0011895
0.00855977
0.0121381
0.00921999
0.0146099
0.0180635
-0.0779261
-0.0668157
0.190157
0.139504
-0.000529676
-0.00519526
-0.0269917
-0.0291146
-0.0105019
-0.0115185
-0.0109206
6.89638e-05
-0.00495974
-0.0020814
0.0205264
0.0355754
0.0285422
0.0092903
0.00593449
-0.00930674
-0.0719893
-0.0112599
-0.021779
-0.06922
-0.0386336
-0.00333428
0.0116557
0.0126514
0.00616818
7.88748e-05
-0.00590042
-0.00119566
-0.0015002
0.000688348
0.00891454
0.0100594
0.00554798
0.00921242
0.0097692
0.0265352
0.021749
-0.0257003
0.0835397
0.0633035
-0.106234
-0.0437564
0.0228317
0.0132675
0.00284078
-0.00158678
0.00100822
0.00374519
-0.000397885
-0.00181608
0.00829758
0.014423
0.00320693
-0.0188058
-0.0236804
-0.00221278
-0.0176467
-0.0104279
0.00627522
-0.0248748
-0.0275573
-0.010572
0.0003994
0.00324901
-0.0031129
-0.00424339
0.0014177
0.00867829
0.0146978
0.00686497
-0.00564161
-0.0187528
-0.0159442
-0.000657674
0.00349824
-0.0025268
0.0172047
-0.00649872
0.0250676
0.0496793
-0.0422928
-0.0348748
0.0185182
0.0189415
0.00805993
0.00410758
0.00272584
0.00250329
0.00103693
-0.000214195
0.00267822
0.00882241
0.00921129
-0.00354718
-0.0135869
-0.00866042
-0.000814344
-0.00302135
0.00619309
0.00354643
-0.00402128
-0.00303701
-0.00268388
-0.00196249
-0.00401699
-0.00503146
-0.00101486
0.00363023
0.00914779
0.00770569
-0.00756046
-0.0183618
-0.0124087
-0.00180387
0.00298117
-0.00135346
0.00305486
-0.00366269
0.000691622
0.0184695
-0.00876517
-0.0128757
0.00967014
0.0109804
0.00404495
0.000510765
4.35381e-05
0.000143978
6.62252e-05
4.17229e-05
0.000311201
0.000758635
0.00436725
0.00210598
-0.00282918
-0.00366398
0.000766507
0.000273462
0.00269787
0.0085836
0.00637505
0.00351642
0.00132665
0.000954218
-0.000484004
-0.00275312
-0.00289952
-0.00120265
0.00183836
0.00204764
-0.00287738
-0.00515516
-0.00290629
-0.000281478
0.00122267
-0.000247396
0.00109403
-0.00130011
-0.00214612
0.0044841
-0.00278274
-0.00270464
0.0043098
0.00392258
0.00110364
-9.22704e-05
-2.49938e-05
-4.53767e-05
-1.68606e-07
-2.46021e-06
7.43031e-06
-0.000155813
0.000357514
0.000704587
-0.000345494
-0.000471405
0.00131983
0.000593084
0.000858807
0.00479539
0.00466216
0.00240979
0.00157888
0.0011476
0.000444097
-0.000646216
-0.00114055
-0.000980761
-0.00044001
-7.48513e-06
-0.000494093
-0.000475627
-0.000152946
0.000123159
0.000268682
-0.000140417
0.000310354
-0.000329168
-0.00105887
0.00069809
-0.00113372
0.000197049
0.00166477
0.000885509
0.000231344
5.98077e-05
6.21739e-05
1.02787e-05
4.74809e-06
1.6255e-07
-6.50171e-07
-6.63498e-06
1.64891e-06
0.000104058
-2.00475e-05
-2.06954e-05
0.000864711
0.000306227
9.8554e-05
0.00148926
0.00132763
0.00046618
0.000121986
0.000123343
0.000150527
2.27486e-05
-0.000138222
-0.00034139
-0.000314406
-0.000171312
-7.46276e-05
-0.000106087
-2.19433e-06
-4.96483e-06
-4.20208e-07
-1.27626e-05
4.46252e-05
-0.000189306
-0.000254176
-4.06168e-05
-0.000271276
0.000331217
0.000408133
0.000128168
-2.51474e-08
3.43149e-05
1.33368e-06
5.27527e-09
-2.15608e-08
-5.01634e-09
4.31356e-08
-4.7275e-06
2.56316e-06
8.28732e-06
3.12057e-06
2.73794e-06
0.000287557
0.000148485
-1.1535e-05
0.000270945
0.000202442
5.70202e-05
-2.14294e-05
-6.32611e-05
-3.10267e-07
5.12632e-06
5.76304e-07
-3.36525e-06
-6.78109e-06
-5.28332e-06
-2.40863e-06
-1.02532e-06
-1.37052e-06
-1.41184e-07
-3.0119e-07
-5.48014e-07
4.46941e-06
-1.10767e-05
-9.96867e-05
-9.30901e-05
-2.89681e-05
-2.60147e-05
1.484e-05
-4.47595e-06
2.13617e-06
1.39444e-07
-4.87564e-09
-5.8009e-10
-3.82438e-10
-1.02444e-10
4.2416e-09
7.29859e-09
-3.18828e-07
-4.25731e-09
-1.08814e-07
6.89603e-07
2.94934e-05
-1.51935e-06
4.94618e-07
1.39883e-05
9.94199e-06
2.4782e-06
-1.05794e-06
-8.62824e-07
-2.76212e-07
-1.58088e-08
3.20851e-09
-8.90315e-10
-1.95085e-08
-2.66854e-08
-1.41384e-08
-7.30008e-09
-3.04249e-09
-5.22871e-10
9.72678e-09
6.4492e-09
-6.40295e-08
8.61462e-07
-2.17467e-06
-7.18773e-06
-2.67951e-06
-4.51196e-06
-1.15272e-06
7.67851e-07
9.98011e-08
3.0169e-09
-5.45288e-11
-5.48731e-12
1.87615e-11
5.27144e-12
-1.10116e-10
5.9468e-10
-1.49909e-10
-3.68588e-10
9.71328e-09
-5.97987e-08
-1.67623e-06
8.35312e-07
2.42204e-06
5.24705e-07
8.33814e-09
1.7583e-09
-1.36402e-09
-9.51562e-10
-7.24885e-11
4.85462e-11
-2.10021e-12