/*--------------------------------*- C++ -*----------------------------------*\
| =========                 |                                                 |
| \\      /  F ield         | OpenFOAM: The Open Source CFD Toolbox           |
|  \\    /   O peration     | Version:  5.0                                   |
|   \\  /    A nd           | Web:      www.OpenFOAM.org                      |
|    \\/     M anipulation  |                                                 |
\*---------------------------------------------------------------------------*/
FoamFile
{
    version     2.0;
    format      ascii;
    class       volVectorField;
    location    "50.4676134421789371";
    object      MD1Tux;
}
// * * * * * * * * * * * * * * * * * * * * * * * * * * * * * * * * * * * * * //

dimensions      [0 -1 -1 1 0 0 0];

internalField   nonuniform List<vector> 
60000
(
(0.0152895 3.90891 -0.29163)
(-0.0709326 3.83125 -0.220866)
(-0.145113 2.01379 -0.180216)
(-0.127096 -0.539666 -0.118865)
(-0.0224354 -2.29407 0.0650624)
(0.0438661 -2.30558 0.235794)
(0.0187965 -1.69489 0.258857)
(0.0044749 -1.98522 0.152336)
(0.0589396 -2.16612 0.0170575)
(0.096169 -0.775694 -0.0800627)
(0.0446468 1.45094 -0.198663)
(-0.0490195 2.59818 -0.337105)
(-0.0752433 1.60305 -0.345035)
(-0.00935561 -0.220971 -0.185676)
(0.044558 -0.993307 -0.00815963)
(0.00292205 -0.787233 0.0828802)
(-0.0883291 -0.955871 0.141832)
(-0.139615 -1.83098 0.239575)
(-0.127036 -2.83939 0.32618)
(-0.0531385 -3.95856 0.237103)
(0.075774 -4.99489 -0.0723297)
(0.155084 -4.66051 -0.246399)
(0.070802 -3.67476 -0.0538433)
(-0.050817 -4.33591 0.227495)
(0.0070805 -5.3116 0.331303)
(0.217191 -3.29295 0.257298)
(0.346549 2.66272 0.00372825)
(0.176008 10.0426 -0.469982)
(-0.211912 13.0535 -0.911785)
(-0.384736 7.75257 -0.788713)
(-0.18051 -0.320697 -0.20844)
(0.102311 -3.66748 0.205806)
(0.253948 -1.57245 0.411227)
(0.193585 3.76932 0.653815)
(-0.12229 8.40378 0.885892)
(-0.333419 5.93614 0.5671)
(-0.129591 -1.43048 -0.0526133)
(0.1362 -3.98742 -0.206852)
(0.166077 -1.3174 -0.204585)
(0.0903188 2.01925 -0.27755)
(0.166105 -0.173921 -0.796583)
(-0.113078 0.194101 -0.837397)
(-0.281211 0.456521 -0.708442)
(-0.294732 0.89144 -0.551191)
(-0.153564 0.876545 -0.186147)
(0.012087 0.30868 0.337201)
(0.0116035 -0.0707875 0.697859)
(-0.052525 -0.132889 0.736364)
(0.0570835 -0.429421 0.499323)
(0.259109 -0.737952 0.169283)
(0.291422 -0.457966 -0.255153)
(0.069469 0.363075 -0.814172)
(-0.201632 0.906415 -1.14721)
(-0.251862 0.474303 -0.937492)
(-0.106367 -0.435107 -0.450262)
(0.000555 -0.824728 -0.0653393)
(-0.007902 -0.312535 0.180344)
(-0.0360945 0.699866 0.39951)
(-0.074625 1.48916 0.73293)
(-0.159014 1.63097 1.03841)
(-0.154526 0.808883 0.64628)
(-0.0378725 -0.577512 -0.197241)
(-0.045373 -1.30004 -0.340036)
(-0.109201 -1.04214 0.091614)
(0.0975055 -0.541661 0.394183)
(0.565534 -0.431829 0.489328)
(0.964138 -0.743589 0.330333)
(0.855019 -0.657694 -0.435036)
(0.00266 0.708034 -1.78389)
(-0.925898 2.16141 -2.46328)
(-0.953984 1.6424 -1.4725)
(-0.239338 -0.0914897 -0.00772425)
(0.470682 -1.42496 0.846981)
(0.793751 -1.78354 1.41946)
(0.353798 -0.443677 2.21967)
(-0.625063 1.98146 2.36421)
(-0.859069 1.9528 0.866065)
(-0.13892 -0.281488 -0.226546)
(0.423255 -1.41749 -0.366674)
(0.428074 -0.948932 -0.529944)
(0.127043 -2.34322 -0.247704)
(0.003716 -2.27989 -0.301509)
(-0.0532542 -1.28529 -0.259392)
(-0.0628744 0.120531 -0.192903)
(-0.0737808 1.24423 -0.118583)
(-0.0584308 1.38643 0.0264241)
(-0.029677 1.02101 0.207388)
(-0.0295834 1.18616 0.300088)
(-0.008312 1.40362 0.2365)
(0.0760716 0.630146 0.0917555)
(0.141756 -0.781566 -0.0649917)
(0.0907629 -1.63747 -0.263131)
(-0.0497243 -1.15578 -0.434108)
(-0.133715 0.0483684 -0.412766)
(-0.0845727 0.798669 -0.218068)
(0.0168305 0.841432 0.00291608)
(0.0732629 0.834231 0.159806)
(0.0504666 1.149 0.228984)
(-0.0286908 1.45066 0.305792)
(-0.117975 1.71255 0.474985)
(-0.14649 2.30788 0.433441)
(-0.0599585 2.61852 -0.02691)
(0.0310725 2.63217 -0.334179)
(0.039778 3.28342 -0.241481)
(0.065722 3.81794 -0.0471465)
(0.15852 2.56006 0.0826085)
(0.257259 -1.00066 0.137669)
(0.267325 -5.61181 0.0182505)
(0.0800475 -7.99723 -0.366373)
(-0.224406 -5.28534 -0.742106)
(-0.351335 -0.210102 -0.645208)
(-0.20413 2.31328 -0.17051)
(0.0428403 1.36326 0.246605)
(0.24066 -1.8961 0.460942)
(0.247958 -5.30677 0.645042)
(-0.0360155 -4.44962 0.837018)
(-0.306105 0.373429 0.555288)
(-0.210914 2.60916 0.043041)
(0.0649806 1.07677 -0.150149)
(0.193872 -1.14791 -0.173081)
(0.0308826 -0.587335 -0.0500181)
(0.00496365 -0.808858 -0.0679154)
(-0.009533 -0.618143 -0.0469999)
(-0.00757464 -0.392953 -0.0176858)
(-0.00609232 -0.117048 -0.00507852)
(-0.00805627 0.201501 0.00606339)
(-0.00875173 0.366536 0.0285681)
(-0.00783195 0.448838 0.0443269)
(-0.0045385 0.59237 0.0335869)
(0.00925011 0.495446 0.00938573)
(0.0279564 -0.0290157 -0.0122344)
(0.0212155 -0.611213 -0.051304)
(-0.0099794 -0.748013 -0.0985954)
(-0.0236549 -0.257094 -0.0894872)
(-0.0110518 0.379252 -0.0322807)
(0.00324093 0.538463 0.0183177)
(0.021515 0.209416 0.050062)
(0.030764 -0.102522 0.0638736)
(-0.0100561 0.00891911 0.0768268)
(-0.0578039 0.200214 0.127312)
(-0.0438903 0.583529 0.141904)
(0.0043202 1.23148 -0.00732705)
(0.0284988 1.34861 -0.105387)
(0.0212285 1.08376 -0.0693887)
(0.011804 0.888066 -0.0250048)
(0.0149145 0.476879 0.0114711)
(0.0320688 -0.381086 0.040727)
(0.0551831 -1.56353 0.0389596)
(0.0347948 -2.40808 -0.0422437)
(-0.0406065 -2.00071 -0.159838)
(-0.0816257 -0.594549 -0.155391)
(-0.0494101 0.612579 -0.0431156)
(-0.0028186 0.919098 0.0474606)
(0.0304995 0.26908 0.0911871)
(0.0506044 -1.01567 0.125476)
(0.012669 -1.70432 0.155454)
(-0.0479736 -0.691048 0.101023)
(-0.0449088 0.729047 0.00884908)
(-0.0018135 0.98163 -0.0223855)
(0.0315981 0.193883 -0.0295208)
(0.000842072 -0.044724 -0.00203536)
(-0.000597666 -0.122312 -0.0178333)
(-0.00130849 -0.100755 -0.00971361)
(-0.000560765 -0.0637173 0.00167497)
(-7.416e-05 -0.0444165 0.00164139)
(0.00201591 -0.0181644 -7.78417e-05)
(0.00174197 0.0233371 -0.000565806)
(-0.00117063 0.063436 -0.00555411)
(-0.0023739 0.0900723 -0.0110812)
(-0.00138266 0.096232 -0.0103683)
(0.00327307 0.0130704 0.000140753)
(0.00033484 -0.113724 -0.000425992)
(-0.00575702 -0.147622 -0.0263281)
(0.00795458 -0.0710179 -0.0212846)
(0.0158406 0.0706652 0.00233491)
(-0.0048244 0.125421 -0.00353051)
(-0.00841815 0.0307516 -0.00747651)
(0.0252822 -0.138917 0.0052218)
(0.0104898 -0.0521524 0.014722)
(-0.0461835 0.168051 0.0400885)
(-0.0170825 0.0900819 0.0679615)
(0.0372755 0.284059 0.0205951)
(0.0112769 0.435056 0.0127037)
(-0.0208437 0.144073 0.0509385)
(-0.0111019 -0.0424311 0.0200213)
(0.0010629 -0.0424274 -0.00251685)
(0.00352543 -0.0911844 0.0051148)
(0.0140598 -0.252416 0.015827)
(0.0253707 -0.485298 0.00426337)
(0.0028113 -0.452717 -0.0454027)
(-0.0244193 -0.120052 -0.0595226)
(-0.0146209 0.112457 -0.0162007)
(0.000929165 0.159011 0.00298399)
(-0.000286368 0.111434 -0.000624151)
(0.00043537 -0.0434717 0.00542204)
(0.00301745 -0.254234 0.0270371)
(-0.00242296 -0.146694 0.0171554)
(-0.000978215 0.0918705 -0.00352604)
(-0.000766693 0.201761 0.00789291)
(-0.00236572 0.129011 0.00855384)
(-0.00367473 0.00772001 0.0074432)
(-0.00285869 0.000161001 -0.00184321)
(-0.00160287 0.00252855 -0.0028607)
(0.00014301 0.00218943 0.00492443)
(0.00011178 0.00437743 0.0018449)
(0.00105508 0.000708756 -0.00195055)
(0.00239163 -0.0106697 -0.00392666)
(0.00148083 -0.00708868 -0.00961849)
(0.000153258 0.00369135 -0.0151603)
(-0.00118947 0.0139536 -0.0113644)
(-0.000955788 0.0128773 -0.00088338)
(-0.000706186 -0.0140955 0.0072519)
(-0.00401561 0.0102628 0.00133935)
(0.00578712 0.0239393 -0.00758445)
(0.0156046 -0.0227242 0.00544517)
(-0.00190525 -0.0404929 -0.00540845)
(-0.0150046 -0.00283706 -0.0157167)
(0.0189049 -0.058423 -0.00293124)
(0.0338287 -0.111537 -0.00057465)
(-0.0376878 0.158492 0.013453)
(-0.0292826 0.103121 0.0328338)
(0.0526143 0.00429197 0.0120728)
(0.00930138 0.139929 0.0327143)
(-0.0459843 0.00191375 0.0822805)
(-0.0137765 -0.023353 0.034719)
(0.00904382 0.0137079 -0.00271493)
(0.00355247 0.0126257 -0.00150772)
(0.000370494 -0.00169729 0.00253844)
(0.00574585 -0.0799302 0.00356116)
(0.00964044 -0.167286 -0.00662998)
(-0.00283897 -0.0856979 -0.0275044)
(-0.0111873 0.0118957 -0.0159672)
(-0.00336098 -0.00257581 -0.000680943)
(0.00334126 -0.0327977 -0.00821431)
(0.00099517 -0.00853666 -0.0154021)
(-0.00180319 -0.0121352 -0.00656555)
(-0.000817724 -0.0179811 0.0005007)
(0.00276769 0.000568535 -0.00836998)
(0.00364552 -0.00948067 0.00531464)
(-0.00182671 0.0138102 0.0128829)
(-0.0009476 -0.00373056 0.00646918)
(-0.00122199 0.0036005 0.00383926)
(-0.00094228 0.0121625 0.00109045)
(-0.000327886 0.0119414 0.00332728)
(-0.000338475 0.0106606 0.00144413)
(-0.000374235 0.0105015 -0.00116161)
(0.00038426 0.00245638 -0.0022736)
(0.000930477 -0.00589898 -0.00527959)
(0.000845675 -0.00662164 -0.0074733)
(0.000117313 -0.00449634 -0.00590074)
(-0.000929291 0.00254638 0.000606538)
(1.02751e-05 -0.0021695 0.00532073)
(0.000355938 0.00608153 0.00724263)
(0.00272112 0.0300056 0.00548927)
(0.00520325 -0.016366 0.00121347)
(-0.00183665 -0.0590833 -0.00466767)
(-0.0107013 -0.0178936 -0.00709727)
(0.00795735 -0.00516474 0.000896843)
(0.0439606 -0.136531 -0.00700115)
(-0.0115453 -0.010194 -0.00157138)
(-0.041332 0.167494 0.00967275)
(0.0417738 -0.0215812 -0.00714367)
(0.0110885 -0.0415398 0.0127392)
(-0.0452525 -0.0132587 0.0488866)
(-0.00887261 0.0498397 0.0188714)
(0.00618787 0.0225069 -0.0011585)
(0.000973474 0.00318212 -0.000370857)
(0.000165375 0.000547589 -0.000722707)
(7.53728e-06 0.000315398 0.000436021)
(0.00114795 -0.0334756 -0.000285293)
(0.0029901 -0.0571983 -0.00422583)
(-0.00122281 -0.0140591 -0.0106181)
(-0.00602101 0.015498 -0.00214348)
(-0.00164933 0.00171238 0.000965715)
(0.00379635 -0.0184573 -0.00730939)
(0.0019551 -0.00433012 -0.00804974)
(-0.00048748 0.00236361 -0.00275404)
(3.95015e-05 0.00422935 -0.00534336)
(0.000966399 -0.0148645 -0.00205337)
(0.000424577 -0.0181579 0.00635899)
(1.6375e-05 -0.00463495 0.00255591)
(-0.000125699 -0.00150704 0.00331121)
(-0.000147982 0.00218339 0.00300925)
(-8.24317e-05 0.0038227 0.00259912)
(-0.000104462 0.00390438 0.00111395)
(-0.000295054 0.00531462 -0.000373276)
(-0.000395559 0.00563137 -0.000793319)
(-0.000120151 0.0026805 -0.00240543)
(0.000337572 -0.00041408 -0.00189685)
(0.000349423 -0.00190268 -0.00158393)
(-0.000533539 0.000509815 -0.00050326)
(-0.000134864 0.00138199 0.00328039)
(0.0014074 -0.00186709 0.00457945)
(0.00200533 0.00632776 0.00503324)
(0.000412185 -0.00854252 0.0013519)
(-0.00219138 -0.0253067 -0.00331308)
(-0.005603 -0.00497869 -0.0022281)
(-0.00162793 0.0202258 0.00236839)
(0.0318582 -0.0659801 -0.00883544)
(0.0151288 -0.144985 -0.0112136)
(-0.0301116 0.0998077 0.00183811)
(0.0155594 0.0132658 -0.00934732)
(0.010636 -0.129624 -0.00916766)
(-0.0293696 -0.00563106 0.0155916)
(-0.00775296 0.0394743 0.00781128)
(0.000818223 0.00692949 0.000235839)
(-0.000190706 0.000227217 0.000212738)
(-0.000131823 9.50784e-06 -0.000256827)
(0.000127176 -0.000946683 -0.000307549)
(1.71061e-05 -1.83252e-05 -5.43834e-05)
(0.000102331 -0.00700654 -5.25468e-05)
(0.00105634 -0.016242 -0.00109573)
(-0.000204138 0.000441669 -0.00290552)
(-0.00234264 0.0182824 0.00102277)
(-0.000399303 0.00809745 -0.000369975)
(0.00160962 -0.00571975 -0.00283268)
(0.000711394 -0.00220712 -0.00176056)
(-9.5823e-05 -0.000895627 -0.00132376)
(-0.000165427 -0.00180751 -0.00208366)
(-2.6805e-05 -0.00652536 0.000170671)
(-3.5913e-05 -0.00106571 7.47823e-05)
(3.88685e-05 -0.000919155 0.00135676)
(4.98063e-05 -0.000336743 0.00216479)
(-6.39215e-06 -1.39172e-05 0.00172569)
(-6.19773e-05 0.000121242 0.000746297)
(-3.42712e-05 0.000378923 0.000210392)
(-6.58577e-05 0.00145331 -0.000120233)
(-0.000179297 0.00230373 -0.000922395)
(-2.5606e-05 0.00183628 -0.000444745)
(0.000279487 0.000283472 0.000862436)
(-0.000308143 0.000923856 -0.000694163)
(-0.000453874 0.00303566 0.00140825)
(0.00124392 -0.000199897 0.0028983)
(0.00144957 -0.000886985 0.00169468)
(-0.000677296 -0.005882 0.000195201)
(-0.00108131 -0.00558428 -0.0013433)
(-0.00205066 0.00277633 -0.000782389)
(-0.00334626 0.0199754 0.00191739)
(0.0119082 0.00330737 -0.00456516)
(0.0191106 -0.124822 -0.0117334)
(-0.0105912 -0.0223944 0.00109767)
(-0.00176125 0.0155037 -0.00153847)
(0.00732559 -0.119911 -0.0105584)
(-0.0128089 -0.0194596 0.00385474)
(-0.00645647 0.00940432 0.00329071)
(-0.00116742 0.00021434 0.000461573)
(-0.000300829 -0.000518345 8.42119e-05)
(-4.04461e-05 5.65975e-05 0.00012789)
(-1.04943e-05 3.94415e-05 -8.97698e-05)
(4.35966e-05 -0.000585244 -2.13469e-06)
(1.89875e-05 -3.57567e-05 -0.000125972)
(4.22375e-05 -0.0010705 6.58724e-05)
(0.00033569 -0.0052783 -0.00033494)
(-3.3845e-05 0.000145292 -0.000468135)
(-0.000607236 0.00666157 0.000193788)
(-8.65758e-05 0.00181365 -0.000401603)
(0.000360668 -0.00182684 -8.82555e-05)
(0.000134117 -0.0015658 -0.000153295)
(-5.11303e-05 -0.00102949 -0.000352669)
(-9.86122e-05 -0.000709964 -0.000783914)
(-2.47509e-05 -3.64818e-06 -0.000326016)
(1.94434e-05 -6.23191e-05 0.000256068)
(3.29401e-05 -0.000156287 0.00105605)
(1.1596e-05 -0.000252801 0.000876403)
(-2.14484e-05 -0.000133709 0.000349787)
(-2.56839e-05 4.18661e-06 7.05229e-05)
(-1.43255e-06 6.95424e-06 0.00012368)
(-2.87837e-05 0.000297191 -0.000273562)
(-7.43211e-05 0.000799471 -0.0002565)
(0.000153631 0.000347939 0.000659042)
(5.55429e-05 -0.000337297 -4.4085e-06)
(-0.000351831 0.00210033 0.000346812)
(0.000551408 0.00126328 0.00170205)
(0.000798513 -0.0027949 0.000554713)
(-0.000520064 -0.00356285 -0.000194531)
(-0.000379767 -0.000656044 -0.000212947)
(-0.000283632 0.000178629 -0.000159268)
(-0.00133137 0.00863644 0.000883753)
(0.00170554 0.0135585 -0.000557308)
(0.00899569 -0.0443698 -0.00565176)
(-0.0009094 -0.0603743 -0.000701966)
(-0.00434422 0.0050635 0.00196168)
(0.00319878 -0.0617546 -0.00440328)
(-0.00231054 -0.0238599 0.000350452)
(-0.00350925 -0.00278391 0.00129017)
(-0.00118387 -0.000980944 0.000381051)
(-0.000214379 -0.000109347 9.42481e-05)
(-1.71777e-05 -3.69905e-06 3.16985e-05)
(-1.36975e-06 4.18008e-06 2.21227e-05)
(-2.37885e-06 4.35371e-05 4.1907e-06)
(2.99362e-06 -0.000193617 -2.98772e-06)
(-5.0781e-06 -4.14078e-05 -1.45274e-05)
(1.03857e-05 -0.000384907 -4.52771e-06)
(7.48163e-05 -0.00154688 -9.39081e-05)
(-6.43365e-06 -0.000199791 1.54537e-06)
(-0.000103336 0.00118065 -7.76242e-05)
(-4.27202e-06 0.000144166 3.92367e-05)
(5.77512e-05 -0.000442936 7.25157e-05)
(1.31688e-05 -0.000431777 1.20964e-05)
(-2.74106e-05 -0.000207856 -0.000206307)
(-1.32115e-06 2.18606e-05 -0.000135337)
(3.39002e-06 4.05649e-05 -2.29913e-05)
(4.76607e-06 -5.458e-05 0.000283854)
(-2.71338e-06 -9.03058e-05 0.000297051)
(-3.05668e-06 -0.000103867 9.31883e-05)
(-6.09339e-07 -4.58096e-06 2.14992e-06)
(-5.70263e-07 4.53299e-07 3.82108e-05)
(-2.43292e-07 9.6208e-07 -1.1974e-05)
(-8.08276e-06 0.000117247 -9.10298e-05)
(1.33089e-05 0.00029783 0.000156179)
(8.45701e-05 -0.00050592 0.000115789)
(-7.1291e-05 0.000367169 1.86829e-05)
(0.000113311 0.000898415 0.000578476)
(0.000331639 -0.00174863 0.000282833)
(-0.000168216 -0.00188191 -6.03768e-05)
(-0.000235055 6.71337e-05 -6.8169e-06)
(4.85628e-05 -0.0007712 -1.75693e-05)
(-0.000268716 0.00118618 0.000187683)
(-5.34296e-05 0.0044255 0.000159287)
(0.00199935 -0.00588623 -0.00116002)
(0.000546781 -0.0306181 -0.000792193)
(-0.00183218 -0.00117488 0.00122069)
(0.00064906 -0.0150271 -0.000781157)
(0.000587126 -0.0138872 -0.000200373)
(-0.00114229 -0.00415286 0.000486727)
(-0.00050871 -0.000705299 0.00022797)
(-6.97465e-05 -6.3521e-05 5.9665e-05)
(-1.49741e-05 3.4943e-07 1.33313e-06)
(1.61801e-07 -5.91611e-07 1.73655e-07)
(-2.18679e-07 5.97574e-06 -9.54972e-08)
(-2.18545e-07 9.01409e-06 3.42216e-07)
(1.59809e-07 -6.28726e-06 -3.01191e-07)
(-3.54541e-07 2.97435e-05 8.8992e-08)
(3.47602e-07 -4.86954e-05 -1.17152e-06)
(4.03077e-07 -0.000274697 5.52338e-06)
(-3.44129e-07 -2.23649e-05 -2.73305e-06)
(-2.75766e-07 0.000145853 -5.50383e-05)
(5.66081e-07 -5.03924e-06 8.46074e-07)
(-5.88245e-08 -8.90085e-05 -6.50904e-06)
(-8.35505e-07 -5.86773e-05 9.51648e-07)
(-2.73883e-07 1.12643e-06 -5.70916e-06)
(3.83265e-07 6.10562e-06 -6.28092e-05)
(3.79619e-07 -1.12448e-05 0.000128683)
(-2.82713e-07 -1.13379e-05 4.90759e-05)
(-1.13599e-07 -1.33605e-06 9.11202e-06)
(-6.08185e-10 -1.03261e-07 2.43795e-08)
(-1.90837e-08 9.11439e-07 -7.68965e-08)
(-7.81911e-08 1.99288e-06 -2.96959e-06)
(-7.0243e-07 1.79417e-06 -3.24393e-06)
(-7.72498e-07 3.15505e-05 1.78385e-06)
(7.13308e-05 -5.40152e-05 4.28271e-05)
(-1.71665e-07 -0.00024064 -3.63724e-07)
(2.31925e-05 0.000220204 4.56814e-05)
(9.31018e-05 -0.00064272 0.000130363)
(-6.42484e-05 -0.000954843 2.86536e-05)
(-9.36243e-05 -6.5771e-05 4.88618e-06)
(-1.469e-05 -0.000140651 -3.62865e-07)
(-3.26118e-05 -0.000248169 2.46973e-05)
(-2.95299e-05 0.000835058 8.64782e-05)
(0.000220003 -0.000125365 -7.70759e-05)
(0.0002169 -0.00637962 -0.000141062)
(-0.000377546 -0.00189335 0.000285205)
(1.65635e-05 8.54454e-05 2.49098e-05)
(0.000337183 -0.0043459 4.35146e-05)
(-0.000180737 -0.00180843 0.00018355)
(-0.00014514 -0.000241571 9.16028e-05)
(-3.80584e-05 -5.50569e-05 3.04506e-06)
(-3.43221e-07 6.8195e-08 4.2667e-08)
(-3.18693e-09 -3.84212e-08 2.0251e-09)
(1.45865e-09 -5.32685e-07 1.85609e-09)
(1.99435e-09 7.68456e-07 -2.94765e-09)
(-1.13036e-09 2.73969e-07 1.83424e-09)
(1.77379e-09 1.78698e-07 1.02202e-09)
(-1.19139e-09 1.58212e-06 5.71931e-09)
(-3.95236e-09 -1.10367e-06 -6.26565e-08)
(3.75503e-09 9.42403e-08 4.61926e-07)
(1.09387e-08 1.66821e-07 5.16806e-08)
(5.44725e-09 1.11507e-06 -1.33251e-08)
(-1.83025e-09 -1.91872e-06 -1.57669e-06)
(-1.07571e-07 1.33004e-06 4.57825e-06)
(-5.49257e-10 3.32091e-07 -2.19676e-06)
(-4.97534e-10 8.89424e-07 -2.54078e-06)
(6.66226e-10 -9.48709e-07 4.20529e-06)
(-6.4683e-11 -3.78874e-07 2.17992e-06)
(2.6985e-10 -4.05197e-09 1.0618e-07)
(1.33031e-10 8.36561e-10 -9.2664e-10)
(-1.14782e-10 -1.96996e-09 -2.7893e-09)
(3.76707e-09 6.45659e-08 2.27469e-08)
(-2.43963e-09 2.6041e-07 -1.713e-07)
(-1.93286e-06 2.41087e-06 -1.23242e-07)
(4.47859e-06 2.22947e-06 2.83701e-08)
(3.39872e-06 -0.000234096 -3.20839e-07)
(2.32602e-06 2.61728e-06 4.13816e-06)
(4.71502e-06 -0.000310445 5.08437e-06)
(-6.33006e-06 -0.000305446 4.94689e-07)
(-6.05262e-06 -9.85719e-05 7.70127e-08)
(5.38113e-07 5.20038e-06 -3.70475e-07)
(-1.20025e-06 -4.93347e-05 -1.76025e-08)
(-1.91558e-05 0.00011412 3.29669e-07)
(2.4739e-05 4.27589e-05 -2.23846e-06)
(5.18751e-05 -0.000614508 -1.38764e-06)
(-4.82128e-05 -0.000664834 4.53855e-05)
(-1.9319e-05 0.000631954 9.49018e-06)
(4.62426e-05 -0.000727633 2.75336e-05)
(-1.36951e-05 -0.000479369 7.01329e-05)
(-2.16744e-05 -0.000126934 3.81828e-06)
(-7.14331e-07 -1.13798e-06 9.89722e-08)
(-2.61497e-08 -5.98524e-09 3.69637e-09)
(-9.1232e-10 4.15995e-10 8.605e-11)
(-3.63523e-11 4.38798e-09 -1.52864e-11)
(-1.14258e-11 -4.46852e-09 2.20023e-11)
(4.26507e-12 -2.27896e-09 -9.97198e-12)
(-4.47097e-12 -6.90489e-10 -4.02973e-11)
(2.00797e-12 -8.20692e-09 4.85545e-11)
(1.31591e-11 3.29075e-09 2.30842e-10)
(1.05457e-11 5.00261e-09 -1.27938e-09)
(2.32262e-12 -9.252e-09 8.45943e-11)
(8.80937e-11 -3.15447e-08 -7.58263e-10)
(-4.01683e-10 -2.74235e-08 -1.47399e-08)
(3.28923e-10 -2.55647e-08 -6.18332e-09)
(2.41202e-11 -1.30046e-09 -8.17327e-10)
(-3.13095e-11 2.86419e-09 -3.23056e-09)
(-4.54564e-11 1.95983e-10 2.54475e-08)
(2.86055e-11 8.33985e-10 9.80131e-09)
(2.42458e-11 4.00607e-10 3.38713e-10)
(2.69739e-12 2.45307e-11 -3.87947e-12)
(1.18491e-12 -1.25822e-12 8.74573e-12)
(-1.7423e-11 3.72303e-10 -1.0545e-10)
(4.58615e-11 -1.14088e-08 8.95932e-10)
(-1.52308e-09 7.76946e-09 8.28013e-10)
(1.36754e-07 5.83878e-06 1.233e-10)
(-4.14199e-07 -1.35089e-05 -9.51729e-10)
(1.35313e-07 -4.57437e-06 2.60572e-08)
(5.03201e-07 -2.05108e-05 4.6732e-08)
(-2.64983e-07 -1.86927e-05 5.54479e-09)
(-8.77593e-08 -1.42629e-06 1.27203e-09)
(-4.55922e-09 -3.997e-07 -4.1643e-09)
(1.10811e-07 -3.0568e-06 7.73482e-10)
(-1.82108e-07 3.26327e-06 -2.41256e-09)
(-4.41039e-07 5.48789e-05 4.0996e-08)
(2.66255e-07 -7.1737e-05 -6.6438e-07)
(5.5841e-08 -0.000102071 1.41792e-07)
(-4.58096e-07 7.42011e-05 6.8049e-07)
(2.40402e-07 -4.3727e-05 1.69838e-06)
(3.73786e-07 -6.56948e-05 4.84358e-07)
(3.43323e-08 -2.16422e-06 4.43755e-08)
(-2.41317e-09 -7.92325e-08 2.96235e-09)
(-4.86183e-11 -2.78424e-09 9.23966e-11)
(3.91361e-12 -9.72638e-11 8.01374e-13)
(1.65484e-13 -2.16921e-11 -1.36095e-15)
(2.57342e-14 1.28204e-11 -8.26336e-14)
(-7.56916e-15 1.29029e-11 2.14305e-14)
(-3.63125e-15 -8.80428e-14 4.33931e-13)
(-2.46762e-15 2.6432e-11 -1.12783e-12)
(-2.883e-14 -6.17551e-12 4.14673e-13)
(2.89355e-14 -1.34161e-11 2.04989e-12)
(-4.82858e-14 -3.80967e-11 1.84051e-12)
(3.2113e-13 -2.04513e-11 -2.07256e-11)
(-2.94946e-12 -3.04643e-10 7.96148e-11)
(-3.50544e-13 1.19456e-09 3.18721e-10)
(7.57535e-14 6.37394e-15 1.78345e-11)
(-2.36129e-13 -5.78579e-11 8.76876e-11)
(-2.36919e-13 8.58011e-11 5.59011e-11)
(2.51547e-13 6.67339e-11 -1.61585e-11)
(1.67705e-13 7.42523e-12 -1.06536e-12)
(1.49416e-14 2.88314e-13 3.77114e-14)
(-9.14695e-16 3.27229e-14 7.28186e-14)
(3.7791e-14 -2.9622e-12 -2.40942e-13)
(-1.79811e-13 4.78202e-11 -3.94293e-12)
(-3.24161e-12 -1.28771e-10 -6.21496e-12)
(2.8432e-10 4.22364e-09 -9.9971e-13)
(-2.74989e-09 -3.75066e-07 3.49986e-13)
(1.04029e-10 1.13933e-06 1.8163e-10)
(3.81923e-09 -7.46099e-07 4.24192e-10)
(-2.59929e-10 -2.39532e-07 5.89436e-11)
(-1.05887e-09 -1.95153e-08 1.78119e-11)
(-1.40117e-10 8.20144e-10 -3.69198e-11)
(-6.03815e-10 -7.05392e-09 3.4449e-12)
(1.5131e-09 -3.03201e-07 2.38424e-11)
(3.10445e-09 4.92712e-07 -5.36272e-10)
(-1.43586e-09 9.0702e-07 5.66273e-09)
(-5.34358e-09 -2.37785e-07 2.07193e-10)
(-8.5594e-10 7.52489e-07 1.34955e-09)
(3.18855e-09 1.0182e-06 1.32951e-08)
(8.27498e-10 9.41126e-08 7.82342e-09)
(-3.51354e-10 -6.59667e-09 9.24157e-10)
(-3.68923e-11 -1.32483e-10 4.21847e-11)
(-1.51153e-12 1.07696e-11 7.20863e-13)
(-3.55094e-14 4.39589e-13 -1.71168e-14)
(4.5031e-16 2.89918e-14 -7.11185e-16)
(9.71344e-16 -1.17108e-14 7.08667e-16)
(1.37635e-15 -4.31519e-14 -5.95125e-16)
(-1.15502e-15 8.68075e-15 -3.02695e-15)
(-3.20265e-15 -3.7701e-14 3.89682e-15)
(-2.97823e-15 1.24578e-14 -1.0176e-14)
(-3.07744e-15 5.08706e-14 -4.88617e-15)
(3.25502e-15 -6.13603e-14 6.7006e-15)
(5.87591e-15 1.79223e-13 -1.43946e-13)
(-7.182e-15 -9.46538e-13 1.03706e-12)
(-3.17792e-14 8.26585e-12 -8.23448e-13)
(1.07834e-16 7.53912e-14 2.55782e-14)
(-1.08969e-15 -1.71068e-13 3.14313e-13)
(1.77139e-16 6.60916e-13 9.62141e-14)
(1.0387e-15 4.17956e-13 -1.07744e-13)
(-3.27229e-16 3.6862e-14 -3.04677e-15)
(2.21489e-16 2.23845e-16 -1.87102e-16)
(-3.9027e-16 3.20981e-16 3.87583e-16)
(-1.62928e-16 2.97563e-15 2.59235e-15)
(4.82435e-16 -9.38399e-14 1.06128e-14)
(-2.92662e-15 4.5163e-13 2.50493e-14)
(4.46184e-13 7.95923e-12 1.03347e-15)
(-7.76476e-12 -7.0579e-10 3.02098e-14)
(8.49679e-13 6.83779e-09 1.24207e-12)
(2.08174e-11 -9.63745e-10 4.06902e-12)
(6.8866e-13 -2.64526e-09 7.05089e-13)
(-1.29745e-11 -3.18077e-10 1.59254e-13)
(-2.00542e-12 -1.80442e-11 -1.64341e-13)
(2.42128e-12 2.95076e-11 1.50552e-14)
(-4.05536e-12 1.48258e-09 -1.97714e-13)
(-7.3231e-12 -3.73048e-09 2.67471e-12)
(4.83935e-12 -6.23161e-09 -1.77612e-11)
(-9.39784e-12 -1.62224e-10 6.57249e-13)
(-2.28299e-12 7.04147e-09 7.5648e-13)
(1.70348e-11 1.96375e-09 1.98635e-10)
(1.74192e-12 -8.75986e-10 1.15152e-10)
(-2.80574e-12 -9.16962e-11 9.81378e-12)
(-2.222e-13 -3.75691e-12 2.05996e-13)
(-4.4744e-15 -9.03268e-14 -8.56218e-15)
(2.58744e-16 -3.35987e-16 1.22817e-15)
(9.58648e-16 -2.41826e-16 -1.47559e-15)
(-7.34438e-16 1.7259e-15 5.15289e-16)
(-2.89775e-16 -3.95544e-15 3.87554e-16)
(-1.69423e-15 -1.41886e-15 -2.58931e-15)
(-8.70971e-16 4.12867e-15 5.59241e-16)
(4.1382e-15 3.68602e-15 -5.12288e-16)
(2.54552e-15 8.2815e-15 2.18996e-15)
(-1.97175e-15 1.60419e-14 -3.30097e-15)
(-2.44605e-15 -3.83073e-15 -2.14355e-15)
(1.33179e-16 -3.74142e-15 7.0313e-15)
(-6.77342e-17 1.80953e-14 -1.39458e-14)
(-4.40189e-16 4.82646e-16 -1.62767e-16)
(-3.75645e-16 -2.99058e-16 6.47071e-16)
(1.76154e-16 1.98672e-15 1.15303e-15)
(2.79882e-16 8.07946e-16 -5.53888e-16)
(-4.53304e-16 -5.94228e-16 9.13751e-17)
(2.34279e-16 -2.95926e-15 -1.61207e-15)
(2.53506e-16 2.87569e-15 -3.05742e-15)
(-1.054e-16 1.36044e-15 -1.02666e-16)
(8.13804e-16 4.96701e-17 5.51633e-17)
(2.20096e-16 6.07905e-17 -3.02314e-16)
(3.0036e-16 7.8769e-15 -2.44358e-15)
(-7.80539e-15 -1.00504e-12 1.80893e-16)
(1.28879e-13 1.74807e-11 9.93078e-15)
(1.58382e-13 -2.88212e-12 4.24092e-14)
(-1.09307e-13 -2.9336e-11 1.20121e-14)
(-1.51152e-13 -4.46527e-12 8.29155e-16)
(-2.02005e-14 -1.67411e-13 5.63243e-16)
(-8.53661e-15 4.7348e-14 7.05375e-18)
(1.11299e-14 -5.62035e-12 5.23614e-16)
(9.04679e-15 9.17619e-12 -2.66444e-15)
(-1.1658e-14 1.08629e-11 1.10959e-14)
(2.85321e-15 -1.7176e-12 2.41768e-15)
(2.90197e-14 3.20164e-11 2.36027e-14)
(-4.9272e-15 3.42749e-12 1.75682e-12)
(-3.17556e-14 -6.3276e-12 7.79709e-13)
(6.3651e-16 -4.97722e-13 3.07848e-14)
(2.10342e-15 -1.07609e-14 -3.1525e-15)
(1.09324e-15 -9.92191e-16 -3.13219e-15)
(8.02966e-16 -9.96294e-16 2.38823e-15)
(1.31365e-15 -9.35857e-16 1.03394e-15)
(-5.01566e-16 -1.99122e-15 -2.76617e-15)
(1.5208e-16 1.30422e-15 3.33675e-16)
(2.4928e-15 -1.75247e-15 1.57845e-15)
(-1.17656e-15 4.85775e-15 7.42591e-16)
(-1.87187e-15 5.71071e-17 9.09892e-16)
(1.82865e-15 -4.90774e-15 -2.33735e-15)
(-1.58395e-15 -4.83392e-15 1.56875e-15)
(-2.05007e-15 -5.41181e-16 3.21624e-15)
(1.8005e-15 -7.13839e-16 4.17484e-15)
(8.80741e-17 8.39275e-17 1.82854e-15)
(-2.31028e-17 1.43769e-15 2.20737e-15)
(-4.26162e-16 -3.19443e-17 1.59427e-15)
(7.20154e-16 1.00182e-15 -8.26277e-16)
(-1.48309e-16 4.67919e-16 -6.42843e-16)
(-2.16171e-15 -2.05709e-15 -1.40738e-15)
(1.92193e-15 -8.18089e-16 -2.15225e-15)
(1.66143e-15 2.43919e-15 -8.04548e-16)
(-1.55488e-15 5.85479e-16 1.40736e-15)
(-1.89358e-16 5.41594e-16 -1.64588e-16)
(5.85448e-16 -2.34213e-15 -5.24699e-15)
(-4.62864e-16 3.42965e-15 3.59866e-15)
(-7.63077e-16 -1.13848e-15 -2.86411e-15)
(3.92483e-15 1.53576e-14 -3.06592e-15)
(1.64831e-15 -2.62836e-13 -2.28863e-15)
(-4.93084e-15 -3.09432e-13 4.75144e-15)
(-5.3402e-16 -3.80864e-14 -1.39915e-15)
(1.63139e-15 8.64834e-16 5.45329e-16)
(-7.84167e-16 -2.583e-16 -1.9904e-16)
(-4.25569e-16 1.84452e-14 -2.38113e-15)
(-3.39303e-16 -2.1301e-14 -3.23208e-16)
(2.59655e-16 -5.43127e-16 3.77778e-16)
(6.90435e-16 -4.79197e-16 8.35318e-16)
(3.24419e-16 -6.93814e-15 2.65464e-16)
(-1.46536e-15 -5.75264e-14 9.71516e-15)
(9.91262e-16 6.90281e-15 2.5903e-15)
(9.1159e-16 4.20408e-15 3.93e-18)
(-1.8724e-15 8.84806e-16 2.40064e-15)
(-2.63526e-16 3.69071e-15 1.93169e-15)
(2.29874e-16 -3.28406e-15 -1.0581e-15)
(4.33851e-16 -1.73421e-16 1.08956e-15)
(3.39999e-16 -1.15136e-15 -5.12345e-16)
(-2.18555e-16 4.23771e-15 1.99737e-16)
(-3.8613e-16 -3.87142e-15 -1.44739e-15)
(4.82308e-17 -5.13392e-15 -2.74432e-15)
(-2.721e-17 -4.40426e-15 -4.29708e-16)
(2.21209e-16 3.86725e-15 4.15263e-15)
(1.29497e-16 -6.9224e-15 -2.09028e-15)
(-4.66529e-16 3.44278e-15 1.58478e-15)
(2.66664e-16 -9.3657e-16 1.07539e-15)
(5.02888e-16 9.50471e-16 -1.67924e-15)
(-1.01532e-15 -2.41597e-16 5.26136e-15)
(-6.06359e-16 -6.7966e-16 3.80588e-16)
(3.90279e-16 5.19492e-16 -5.24033e-16)
(-1.3316e-15 -1.14241e-15 3.29916e-15)
(-9.72126e-16 -1.07594e-15 -3.43532e-15)
(2.49313e-15 1.34773e-15 -5.8217e-16)
(8.67163e-16 -3.81977e-15 -1.82227e-15)
(-9.82184e-16 -2.98721e-16 -3.29856e-16)
(-6.66908e-16 -2.219e-17 9.84719e-16)
(1.74561e-15 -1.27854e-15 -1.44918e-15)
(1.03119e-15 1.80275e-15 4.04369e-15)
(-2.07929e-15 -9.95444e-16 5.67771e-16)
(1.82166e-16 -5.01426e-16 -2.02108e-15)
(-1.17083e-15 -9.29817e-15 -1.57979e-15)
(1.52441e-15 -7.93848e-15 -5.62119e-15)
(1.19053e-15 4.924e-15 -1.62249e-16)
(-1.98882e-15 -1.80697e-15 -5.89895e-16)
(1.75704e-16 -3.01085e-16 -7.40548e-16)
(9.38068e-16 -6.70803e-16 7.43653e-16)
(-2.58125e-16 1.3503e-15 -4.95759e-16)
(-1.62339e-15 1.54358e-16 8.94428e-16)
(-3.84192e-16 -2.04255e-16 -4.75697e-16)
(1.11625e-15 -8.70477e-16 -3.85253e-16)
(2.20618e-15 -2.87186e-16 -1.06995e-16)
(-1.73752e-15 2.24248e-15 -5.78535e-16)
(-2.64988e-15 -1.55967e-15 -6.84877e-16)
(2.23825e-15 2.78596e-15 -1.82662e-15)
(-1.02271e-15 1.73005e-15 -1.83175e-15)
(-1.22938e-15 1.47454e-15 2.97856e-16)
(2.55952e-15 5.75962e-16 -5.16343e-16)
(1.79903e-15 4.4992e-16 3.73627e-16)
(-1.28194e-15 2.41928e-16 1.57351e-15)
(-2.28164e-15 -8.88272e-18 6.60279e-16)
(-1.59216e-15 -1.29825e-15 -3.84139e-16)
(2.80939e-15 5.7414e-16 2.64425e-15)
(6.32335e-16 -4.56213e-16 3.07781e-15)
(-1.99161e-15 1.3799e-15 -3.18892e-16)
(1.02596e-15 -9.83228e-16 -4.82483e-16)
(6.10519e-16 3.53378e-16 -1.04998e-15)
(1.33031e-15 4.19312e-16 -3.56824e-15)
(-5.76785e-16 -1.21794e-15 -7.76415e-16)
(4.73325e-17 7.87404e-17 2.46235e-15)
(4.77882e-16 -4.2544e-16 -5.5088e-16)
(-9.78814e-16 9.07119e-18 1.25777e-15)
(-7.97227e-16 1.6544e-15 -5.12748e-15)
(2.2306e-16 1.9232e-15 2.32255e-15)
(7.60052e-16 -2.56215e-15 9.0324e-16)
(6.54905e-16 3.42072e-16 -3.98626e-16)
(-7.25267e-16 -6.62726e-16 1.10626e-15)
(1.55549e-15 1.12033e-15 -2.47663e-15)
(-4.48805e-16 -3.43639e-15 2.80051e-15)
(-2.00329e-15 -6.92213e-16 -8.0349e-16)
(-6.479e-16 3.32978e-17 2.61695e-16)
(-2.50302e-15 -1.50087e-16 4.23257e-15)
(2.89744e-15 1.87532e-15 -1.03624e-15)
(2.95082e-15 -3.21333e-15 -2.2784e-15)
(-1.11502e-15 -9.86761e-17 -6.6734e-16)
(-2.04901e-16 -6.04596e-17 -1.48417e-17)
(4.19644e-16 -4.26843e-16 -1.02745e-15)
(1.45343e-16 -2.08049e-15 -6.73219e-16)
(-4.73777e-16 -2.45641e-17 -4.94037e-16)
(1.89609e-16 4.72958e-16 -6.06306e-16)
(1.92661e-16 1.74674e-15 6.10115e-16)
(1.36225e-17 -9.35301e-16 -3.6737e-16)
(5.14177e-16 -2.77151e-15 2.69905e-15)
(1.60607e-15 3.55387e-15 -1.18318e-15)
(-3.33379e-16 1.83926e-15 -8.16596e-16)
(-9.68345e-16 -8.04696e-16 -1.78662e-15)
(-3.08256e-16 3.34352e-15 -5.1484e-17)
(-3.99083e-16 1.8859e-15 -1.75638e-16)
(-1.10695e-17 -1.19782e-15 -1.54914e-15)
(-3.82317e-16 -2.17973e-15 -2.20408e-16)
(-1.10968e-15 1.92849e-15 -4.21304e-15)
(5.6691e-16 6.54953e-16 -6.7371e-17)
(1.8147e-16 2.87697e-15 -6.20123e-15)
(6.60005e-16 -2.63995e-15 -3.97177e-16)