/*--------------------------------*- C++ -*----------------------------------*\
| =========                 |                                                 |
| \\      /  F ield         | OpenFOAM: The Open Source CFD Toolbox           |
|  \\    /   O peration     | Version:  5.0                                   |
|   \\  /    A nd           | Web:      www.OpenFOAM.org                      |
|    \\/     M anipulation  |                                                 |
\*---------------------------------------------------------------------------*/
FoamFile
{
    version     2.0;
    format      ascii;
    class       volVectorField;
    location    "50.4676134421789371";
    object      MD1Tuy;
}
// * * * * * * * * * * * * * * * * * * * * * * * * * * * * * * * * * * * * * //

dimensions      [0 -1 -1 1 0 0 0];

internalField   nonuniform List<vector> 
60000
(
(3.38465 -41.2699 8.26216)
(3.35363 -13.2338 3.56371)
(1.69103 9.59005 -0.420604)
(-0.694665 20.4291 -4.05311)
(-2.27304 19.2222 -6.30539)
(-2.1854 7.97427 -5.10537)
(-1.58726 -5.38971 -1.29639)
(-1.83806 -17.6313 3.14145)
(-1.96205 -36.1561 6.27214)
(-0.719555 -56.2939 7.52036)
(1.17397 -63.2794 7.17984)
(2.11673 -50.8154 4.12804)
(1.2931 -28.3348 -1.92116)
(-0.20417 -15.3801 -7.95073)
(-0.825555 -20.7308 -11.1927)
(-0.629425 -35.1364 -11.9008)
(-0.80765 -46.6881 -11.3891)
(-1.59372 -52.9443 -9.78547)
(-2.45631 -54.7197 -6.71445)
(-3.30483 -58.2071 -1.5198)
(-3.95316 -69.6521 3.43327)
(-3.5689 -97.4202 3.29985)
(-2.858 -129.239 0.687075)
(-3.62425 -159.155 1.14848)
(-4.6375 -194.143 3.96683)
(-3.289 -227.064 7.1796)
(1.08005 -242.582 9.9792)
(6.8043 -226.563 10.4208)
(9.56285 -171.22 4.10857)
(6.0662 -99.0634 -9.65323)
(0.158 -60.0671 -20.6681)
(-2.43245 -66.4947 -22.2338)
(-1.08605 -90.5172 -18.398)
(2.82373 -105.767 -12.2138)
(6.46939 -88.1468 -2.47369)
(4.55297 -33.0659 12.6769)
(-1.30552 4.97015 20.546)
(-3.38473 -11.8435 17.4313)
(-1.06095 -45.1166 14.6071)
(1.75156 -56.1649 12.197)
(0.5993 5.45429 6.55155)
(1.43421 -14.1511 4.68802)
(1.5328 -27.6179 2.0914)
(1.73947 -28.5055 0.193695)
(1.25127 -15.103 -1.83681)
(-0.073115 1.63363 -3.98352)
(-0.833684 10.9383 -4.09792)
(-1.07802 17.1779 -1.50718)
(-1.73854 27.7424 2.19065)
(-1.94475 33.9553 4.76532)
(-0.7426 29.6797 5.85756)
(1.19234 18.3528 5.89925)
(2.15103 10.3257 4.04269)
(0.993245 11.6015 0.228502)
(-1.0838 15.9547 -3.51378)
(-1.92649 16.6213 -5.39167)
(-0.906805 16.6553 -5.12134)
(0.94811 25.7664 -4.02729)
(2.17985 44.3484 -3.44376)
(2.13999 65.7099 -1.53679)
(0.403691 87.0722 4.12583)
(-2.07791 106.067 8.86865)
(-3.07952 116.49 7.12974)
(-2.55372 130.165 2.29799)
(-1.73866 157.335 -1.31182)
(-1.26106 187.633 -3.14722)
(-1.14163 201.75 -2.97426)
(-0.3043 182.589 -0.2571)
(2.31973 129.322 3.80049)
(4.52864 76.9644 4.22409)
(3.11448 65.2747 -1.3703)
(-0.389985 79.7837 -6.69494)
(-2.76708 90.9351 -7.56212)
(-2.8775 83.2962 -6.41549)
(0.20063 47.2086 -6.07162)
(4.37762 2.2316 -3.2315)
(3.58415 -0.679178 5.8465)
(-1.32181 24.779 9.6219)
(-3.30463 34.1696 7.76651)
(-1.54495 23.8531 6.8801)
(-0.562391 26.4778 -1.48824)
(-0.133547 19.7855 -1.1176)
(0.107417 13.3789 -0.973919)
(0.447636 6.18014 -0.598584)
(0.720603 -1.98234 -0.151002)
(0.498047 -4.43617 -0.444347)
(0.067168 -0.578615 -0.964429)
(-0.043862 3.5277 -1.035)
(-0.115126 9.34935 -0.718483)
(-0.376413 19.1946 -0.583957)
(-0.366233 26.2889 -0.793807)
(0.0553665 25.0308 -0.81186)
(0.451493 15.4925 -0.5016)
(0.298972 6.34954 -0.464992)
(-0.239211 6.75359 -0.665977)
(-0.416684 15.4322 -0.378202)
(0.222019 23.383 0.611633)
(1.22927 24.2577 1.71662)
(1.51476 18.6971 2.3406)
(0.89221 10.4168 2.7433)
(0.093045 1.66748 3.58609)
(-0.44455 4.31792 4.41857)
(-0.148935 16.9173 3.05568)
(0.81741 30.2748 0.305903)
(1.46731 40.7067 -1.34644)
(1.45131 48.4235 -1.89371)
(0.74844 55.0767 -2.10486)
(-0.531065 61.5801 -2.04358)
(-1.45879 59.4603 -0.637027)
(-0.913325 40.2617 2.30665)
(0.16533 17.7209 4.02596)
(0.2158 11.8545 3.49901)
(-0.520005 20.5485 2.85358)
(-1.45845 35.4429 2.58853)
(-1.91583 44.6577 1.5244)
(-0.766714 30.7708 -0.984781)
(0.700151 2.78438 -1.72701)
(0.285595 -1.79821 -0.436402)
(-0.931224 14.7089 -0.838207)
(-1.10702 26.5319 -1.57568)
(-0.110168 2.76582 -0.346036)
(-0.0146925 3.82673 -0.372163)
(0.00679825 3.81885 -0.385842)
(-0.0164521 2.94902 -0.364275)
(0.000152 0.133614 -0.288175)
(0.0403026 -2.96055 -0.221534)
(0.0526562 -3.96068 -0.177243)
(0.0361455 -3.44753 -0.10204)
(0.020561 -3.4329 -0.0300165)
(-0.023344 -2.35123 -0.0078015)
(-0.063599 -0.303723 -0.0827175)
(-0.018001 0.488979 -0.197372)
(0.028953 -0.876137 -0.260653)
(-0.009904 -3.15976 -0.367817)
(-0.0539629 -3.42183 -0.402864)
(-0.0371759 -1.2585 -0.288807)
(0.0618884 0.141864 -0.125455)
(0.34238 -3.0596 -0.0238267)
(0.545934 -9.35661 0.0475057)
(0.174228 -13.0421 0.394663)
(-0.314458 -15.1747 0.892192)
(-0.371166 -15.7948 1.08905)
(-0.19006 -13.6747 0.614063)
(0.0233225 -14.8061 0.102182)
(0.161502 -20.3347 -0.0579555)
(0.225406 -26.9702 0.016536)
(0.280915 -31.9384 0.200674)
(0.258592 -32.5124 0.225517)
(0.08902 -27.2561 0.0702075)
(-0.041955 -21.0786 0.06513)
(-0.07453 -20.1622 0.102937)
(-0.10497 -21.9452 0.109845)
(-0.0980795 -21.6972 0.169332)
(-0.058469 -18.1022 0.244346)
(-0.154499 -9.87375 0.381963)
(-0.240353 -2.17688 0.362394)
(-0.12369 -3.76839 0.0808462)
(-0.0215065 -8.18328 0.0101827)
(-0.0653345 -6.22554 -0.0572985)
(-0.142388 -0.63352 -0.223398)
(-0.00358434 -0.492927 -0.0330071)
(-0.00287106 -0.263891 0.000295026)
(-0.0013406 -0.304266 0.00222732)
(-0.00468314 -0.253714 -0.00236431)
(-0.00719179 -0.175135 -0.0132425)
(-0.0104845 -0.263513 -0.0256647)
(0.0025374 -0.525935 -0.00660349)
(0.0195107 -0.747438 0.0714376)
(0.0196777 -0.839981 0.108875)
(0.0119119 -0.884774 0.0715879)
(-0.0119174 -0.593606 0.0108127)
(-0.0147574 -0.362678 -0.0453706)
(-0.000182185 -0.478888 0.0005145)
(-0.0146966 -0.440095 0.028429)
(-0.000229925 -0.181579 0.00844297)
(0.0279078 0.064022 0.0227985)
(-0.00596641 0.110996 0.00750947)
(0.0313436 -0.581535 -0.0330451)
(0.259599 -2.80226 -0.12048)
(0.176589 -3.98914 -0.0967745)
(-0.238489 -2.61385 0.111611)
(-0.248462 -2.36629 0.197121)
(-0.0103974 -1.53676 -0.0139107)
(-0.0046563 -0.982795 -0.0733735)
(-0.0491565 -1.6537 0.0413459)
(0.00267245 -2.33579 0.0377474)
(0.0442784 -3.10729 0.0418519)
(0.0228697 -4.23681 0.0430964)
(-0.0666188 -4.95753 -0.0251416)
(-0.040357 -5.25498 0.0211545)
(0.0725308 -5.281 0.0952914)
(0.0406333 -4.52357 0.00334302)
(-0.0418823 -3.7773 -0.024772)
(0.00197501 -3.69945 0.0111758)
(0.0641653 -3.67298 0.0435586)
(0.00782005 -2.51054 0.0451648)
(-0.030061 -1.66986 0.028915)
(-0.0162335 -1.5162 0.0104863)
(0.00422844 -1.53471 -0.038825)
(0.0139686 -1.15388 -0.0384465)
(0.0121856 -0.0516191 -0.0322538)
(0.0123625 -0.0139604 -0.00381188)
(0.00916883 -0.000596037 0.0245731)
(0.0016843 0.0354311 0.019924)
(-0.0005547 0.0636381 0.0276423)
(-0.00701363 0.115443 0.0206642)
(-0.0146863 0.155764 0.0120248)
(-0.00920642 0.0667437 0.0389672)
(6.46e-05 -0.0431692 0.0757117)
(0.00993018 -0.112971 0.0569657)
(0.00930346 -0.111506 0.0371737)
(-0.0011404 0.0269074 -0.00580967)
(0.0203719 -0.0151375 -0.0381435)
(0.0351634 0.0463089 0.0479224)
(0.0160314 0.259045 0.0264931)
(-7.26e-05 0.187104 -0.0367619)
(-0.0278432 0.0380633 -0.0473577)
(-0.0620576 0.118525 -0.00842271)
(0.0648244 -0.405375 -0.0423895)
(0.202226 -1.81552 -0.112912)
(-0.0790626 -0.799511 0.0227924)
(-0.222436 -0.0432769 0.0851976)
(-0.00131031 -0.41723 -0.0669313)
(0.0086964 -0.496801 -0.0907917)
(-0.0194569 -0.0500296 -0.0364963)
(0.0306211 0.235969 -0.0283708)
(0.0204978 0.176164 -0.00582494)
(0.00569281 -0.00819821 0.00128476)
(-0.0474567 0.0318222 -0.0216531)
(-0.0906129 0.406719 -0.0144407)
(0.0198484 0.113368 0.140941)
(0.105335 -0.253149 0.125099)
(0.0196309 0.0296608 0.00767158)
(-0.0491057 0.323399 0.0196974)
(0.0010311 -0.00709407 0.0553907)
(0.0341721 -0.253546 0.0531558)
(0.0156528 -0.054743 0.0101737)
(-0.00179267 0.0139238 0.0153225)
(-0.0182406 0.0889175 -0.0240496)
(-0.00244633 -0.0438064 -0.0483048)
(-0.00028276 0.0172616 -0.0232121)
(0.00399044 -0.0166326 -0.0199842)
(0.00574134 -0.0583352 0.000382087)
(0.00528487 -0.0627339 0.0108381)
(0.00535903 -0.0543491 0.0152983)
(0.0043995 -0.0464758 0.0160516)
(-0.003733 0.00600956 0.00526377)
(-0.0104261 0.0552877 -0.000928001)
(-0.00802425 0.0487931 0.0168106)
(0.000809635 0.0282874 0.0296736)
(0.00902575 -0.0166304 0.0159399)
(-0.00022452 0.0039655 0.0157886)
(0.00089445 -0.00944752 -0.0153855)
(0.0254972 -0.13943 -0.00746377)
(0.0213798 -0.162655 0.0207288)
(-0.00575405 -0.18911 -0.0423784)
(-0.0150433 -0.198553 -0.0651874)
(-0.0323373 -0.0591735 -0.0137866)
(-0.0402137 0.152289 -0.00628208)
(0.108708 -0.750408 -0.0823857)
(0.03822 -1.08055 0.0441161)
(-0.187907 0.0585281 0.242954)
(-0.086387 -0.277131 0.148854)
(0.0547193 -0.419644 -0.0154071)
(0.0690142 0.104436 -0.0625693)
(0.0372 0.126363 -0.032537)
(0.00634406 0.0352076 -0.00387314)
(0.000768127 0.00948033 0.00110651)
(4.95784e-05 -0.00141597 -0.000200895)
(-0.0216461 0.298097 -0.00571536)
(-0.0311904 0.534386 0.0224731)
(0.020065 0.13413 0.0810699)
(0.0471351 -0.133343 0.0173058)
(0.00119593 0.0671077 -0.0200374)
(-0.0247496 0.236388 0.00877556)
(-0.00280027 0.0547147 0.0272989)
(0.00945244 -0.00885109 0.0160184)
(0.00603936 -0.0471354 0.0190806)
(-0.00299175 0.0127391 0.0219862)
(-0.00758241 0.0677696 -0.014375)
(-0.00193625 0.0207161 -0.00831738)
(-0.00057626 0.0110776 -0.0133571)
(0.00110418 -0.00366608 -0.0106547)
(0.00203856 -0.0190889 -0.000153596)
(0.00180093 -0.0288741 0.00456842)
(0.00282614 -0.0460365 0.00875242)
(0.00276392 -0.0512009 0.0042397)
(-0.0012653 -0.0216599 -0.00704569)
(-0.00402731 0.00911534 -0.00804093)
(-0.0010727 0.0189661 0.0104696)
(0.00488986 0.000771715 0.00747004)
(7.6495e-05 -0.0166581 0.00249907)
(-0.00379744 0.00680568 0.00787631)
(0.00818323 -0.0368382 0.00115643)
(0.00640204 -0.121177 0.00439262)
(-0.00603959 -0.145535 -0.011818)
(-0.00543897 -0.105643 -0.028293)
(-0.001061 -0.0792366 -0.0103093)
(-0.0505263 0.0747655 0.0105702)
(-0.0132464 0.0233788 -0.0237254)
(0.0565154 -0.771521 0.024552)
(-0.0792739 -0.0550455 0.204665)
(-0.0798171 0.230043 0.137075)
(0.0736124 0.184846 -0.0076065)
(0.0710877 0.160211 -0.0331764)
(0.0172933 0.0340173 -0.0102999)
(0.000618271 0.000790398 -0.00167504)
(-0.000485284 0.00018138 0.000208613)
(0.000327823 -0.00418945 -8.54649e-05)
(9.25888e-05 -0.000201899 0.000212641)
(-0.00480191 0.114754 -0.000117296)
(-0.00777444 0.168416 0.0151865)
(0.00453387 -0.00215178 0.0232439)
(0.0132044 -0.0943996 -0.00484711)
(0.0014439 -8.58879e-05 -0.00958429)
(-0.00678301 0.0541263 -0.00182463)
(-0.00230655 0.0146662 0.0047416)
(0.00133775 -0.0052608 0.00499964)
(0.00116394 -0.020815 0.0164137)
(-0.0010871 0.0124797 0.00653944)
(-0.000393791 0.00524347 -0.000604487)
(-0.000451251 0.00810572 -0.00566827)
(0.000140781 0.00755672 -0.00706307)
(0.000539611 0.00288327 -0.00201712)
(0.000295417 -0.00199426 0.00126565)
(6.14494e-05 -0.00584816 0.00171925)
(0.000507196 -0.0159641 0.00235086)
(0.000783395 -0.0193049 -0.0019847)
(-0.000248453 -0.00887397 -0.00537478)
(-0.000677139 0.00148286 -0.00143305)
(0.0022728 -0.00555215 0.00494929)
(0.000960759 -0.021201 -0.00205104)
(-0.00268704 -0.00190183 0.000451906)
(0.00149165 -0.00763768 0.00227619)
(0.0010199 -0.0447233 -0.000587342)
(-0.00259262 -0.0368961 -0.00242262)
(-0.00267371 -0.0142399 -0.00578197)
(0.000788613 -0.0118118 -0.00422538)
(-0.0184545 -0.0133104 0.00585821)
(-0.0492538 0.22047 0.0099576)
(0.0205093 -0.0820457 0.00200897)
(0.0027441 -0.0522648 0.0609381)
(-0.0387036 0.382847 0.0487007)
(0.038679 0.278182 -0.00345936)
(0.0383898 0.0692967 -0.0132765)
(0.00712521 0.00336379 -0.00329209)
(0.000116701 -0.00210674 -0.000207528)
(-0.000105757 0.000777982 1.2064e-05)
(-5.65815e-05 0.000236502 2.41213e-05)
(7.77676e-05 -0.000873879 2.08102e-05)
(6.56927e-05 -0.000162669 -0.000182183)
(-0.000614688 0.0229945 0.000284039)
(-0.00142938 0.03825 0.00344519)
(0.000365801 -0.000266893 0.00376724)
(0.00247595 -0.0278066 -0.00105028)
(0.000587419 -0.00625253 -0.0023425)
(-0.00130005 0.0073766 -0.00160957)
(-0.000626037 0.00492517 -4.9599e-12)
(0.000153543 -0.000251228 0.00321518)
(0.000116527 -0.0010923 0.00495249)
(-4.94154e-05 0.00051154 0.000649753)
(-7.44386e-05 0.00197182 -0.00144933)
(4.19717e-05 0.0025216 -0.00260956)
(6.86653e-05 0.00135047 -0.000700157)
(1.41056e-05 0.000106242 0.000536546)
(4.26728e-06 1.56077e-05 2.28585e-05)
(3.48248e-06 -0.000153833 2.18087e-05)
(9.98654e-05 -0.00224263 -0.000193819)
(0.000206579 -0.00365153 -0.000612295)
(-0.000374516 -0.000984599 -0.00155132)
(0.000113387 -0.000883098 0.000556214)
(0.000797052 -0.0120835 -0.000850328)
(-0.000894276 -0.004397 -0.00306323)
(-0.000651739 -0.000751542 -0.00129883)
(0.000449522 -0.0137991 -0.000966057)
(0.000386458 -0.00468772 -0.000390051)
(-0.000143702 0.000285682 -8.83618e-05)
(-0.00104616 0.0081218 -0.000338576)
(-0.00216297 -0.0043514 0.000470873)
(-0.0248049 0.0899484 0.00970718)
(-0.000442095 0.186769 0.00233205)
(0.0156706 -0.010699 -6.2325e-05)
(-0.0105464 0.206431 0.00938287)
(0.00746028 0.1606 3.44325e-05)
(0.0133231 0.0289089 -0.0038717)
(0.00245855 1.24749e-05 -0.000619077)
(9.4886e-05 -0.000589234 3.1302e-05)
(-3.21136e-06 -0.000209031 2.81483e-05)
(1.18461e-07 8.33453e-05 -1.68362e-05)
(5.29453e-06 5.37393e-05 5.03894e-05)
(4.53008e-06 -0.00026368 -3.2121e-06)
(3.07725e-05 -0.000239414 -2.84661e-05)
(-2.37425e-05 0.00251174 4.87503e-05)
(-0.000163243 0.00617519 0.000284971)
(4.69235e-06 0.000798187 0.000171257)
(0.000281624 -0.0049496 -3.14197e-05)
(7.648e-05 -0.0017214 -0.000225519)
(-0.000155907 0.00094042 -0.000421681)
(-7.03136e-05 0.00103526 -0.00013707)
(1.07581e-05 0.000200296 0.000887924)
(5.62582e-06 -5.36153e-06 0.000255958)
(3.3964e-06 0.000245777 -4.10443e-06)
(-1.59292e-06 0.000303468 -0.00030995)
(-4.82392e-06 6.70907e-05 -0.000130017)
(-3.28346e-06 1.49784e-05 1.73357e-05)
(3.49904e-06 7.78615e-06 -5.88496e-06)
(4.75899e-06 -1.02664e-06 -3.15637e-05)
(-4.84331e-06 -4.14481e-06 -1.57808e-05)
(1.33405e-05 -0.000408003 -1.93123e-05)
(-2.84993e-05 -0.000838887 -0.000228107)
(-0.000229426 0.00110975 -0.00033295)
(0.000114577 -0.00200804 -4.11518e-05)
(-8.94995e-05 -0.00211668 -0.00137035)
(-0.000595436 0.00170486 -0.00102579)
(0.000112205 -0.000318819 -0.000262011)
(0.000557996 7.2741e-05 -3.41492e-05)
(0.00021025 -0.0010453 7.9574e-05)
(-0.000159995 0.00110071 0.00025036)
(-4.53294e-05 0.00324892 -4.76242e-05)
(-0.00484381 0.00992077 0.00210482)
(-0.00203933 0.101229 0.00279681)
(0.00623207 0.00891765 -0.00375063)
(0.00045228 0.044725 -0.000712017)
(-0.00168783 0.0559425 0.000480899)
(0.0015443 0.00987754 -0.000182233)
(0.000363555 9.69481e-05 0.000107077)
(6.45532e-05 -1.00095e-05 5.96324e-05)
(4.88145e-05 5.78626e-07 -1.3353e-07)
(2.08091e-06 2.94405e-05 -4.1538e-07)
(4.56863e-08 9.88546e-07 -7.04556e-07)
(3.01445e-08 7.89839e-06 1.56468e-06)
(7.61954e-08 -1.74504e-05 -3.85906e-07)
(4.15336e-07 -0.00011734 4.626e-08)
(-2.04133e-07 7.93528e-05 -1.03502e-07)
(-2.66663e-07 0.00054713 -6.02932e-06)
(2.36223e-07 6.01614e-05 1.65525e-07)
(3.91682e-06 -0.00059925 5.36794e-05)
(2.32194e-06 -0.000249395 -1.59743e-05)
(-5.02679e-06 3.64078e-05 -9.99278e-05)
(-1.14253e-06 3.47219e-05 -9.11126e-06)
(2.09781e-06 -4.58746e-06 1.02801e-05)
(1.21957e-06 -1.59362e-05 0.000239779)
(-1.95613e-06 -1.65871e-05 8.88875e-05)
(-1.92891e-06 -1.08093e-05 -1.42799e-05)
(-1.69539e-07 4.25636e-07 -9.85193e-06)
(7.2879e-09 1.23635e-06 -2.78983e-06)
(1.14905e-07 -1.24749e-05 -3.04153e-07)
(3.84787e-07 -1.62737e-05 -3.86837e-06)
(3.0134e-07 5.49808e-06 -5.31104e-06)
(1.09898e-06 -6.53074e-05 -5.02364e-07)
(-0.000168039 0.000119129 -9.10759e-05)
(-6.93779e-06 0.000696143 -2.03083e-06)
(2.8923e-05 -0.000331514 -9.50514e-05)
(-0.000170098 0.00103733 -0.000311166)
(4.1995e-05 0.00178802 -8.64326e-05)
(0.000171666 0.000659079 -8.5989e-06)
(9.82844e-05 -0.000168395 -3.09927e-06)
(2.62083e-05 -7.89646e-05 7.38293e-05)
(8.73194e-06 0.000432141 7.56915e-06)
(-0.00031001 0.000230201 6.78255e-05)
(-0.000548273 0.0181603 0.000419393)
(0.00132942 0.00726153 -0.000653399)
(0.00106251 -0.00377577 -0.000842581)
(-0.00103885 0.00657988 0.000275384)
(-0.000596469 0.00149416 0.000425989)
(-4.95238e-06 0.000209229 7.50196e-05)
(7.19046e-05 0.000178977 -1.37e-06)
(2.08445e-06 8.22554e-06 -9.25843e-08)
(2.58818e-08 8.6762e-08 -5.40915e-10)
(-1.66714e-09 5.68112e-07 4.44796e-09)
(-2.46027e-09 -8.21355e-08 -1.10263e-08)
(1.03809e-09 4.56156e-07 4.896e-10)
(-2.39441e-09 -3.62816e-07 -1.03003e-08)
(1.13383e-09 -1.07643e-06 1.63109e-08)
(3.45016e-09 3.90414e-07 4.64799e-08)
(-2.7698e-09 -9.18345e-08 -4.803e-07)
(7.76019e-08 -4.81797e-07 2.21124e-08)
(2.34858e-08 -1.45098e-05 -6.60389e-08)
(-5.36357e-08 -9.03692e-06 4.18459e-07)
(6.67861e-07 4.01059e-06 -8.29951e-06)
(2.20512e-08 -2.30239e-06 3.97813e-06)
(3.09309e-08 -7.08414e-06 1.60213e-05)
(-2.07292e-08 -6.36723e-06 1.56444e-05)
(-3.26049e-08 -5.55022e-07 2.54618e-07)
(-1.51523e-09 6.70656e-08 -2.62784e-07)
(4.22883e-10 1.10059e-08 -3.71716e-08)
(3.94891e-10 4.28584e-08 -1.08574e-08)
(-6.78065e-09 -3.72788e-07 5.243e-08)
(1.85769e-08 -1.24487e-06 -2.68285e-07)
(2.43742e-06 -1.37391e-06 -1.55986e-07)
(-7.89903e-06 -4.14803e-06 -7.40491e-09)
(-7.68398e-06 0.000557176 6.21592e-07)
(3.217e-07 1.84095e-05 -5.35406e-06)
(-5.22315e-06 0.000460257 -7.96874e-06)
(6.28547e-06 0.000582897 -8.40914e-07)
(1.25545e-05 0.000322678 -1.7376e-07)
(9.79356e-07 1.36821e-05 1.01614e-06)
(4.129e-07 -5.49832e-06 3.54547e-07)
(4.15906e-05 -7.47615e-05 -5.84003e-08)
(-8.49272e-06 -2.0665e-05 -2.11151e-06)
(-8.96667e-05 0.000959927 -1.24656e-06)
(0.000175631 0.00178243 -3.07531e-05)
(0.000184916 -0.00342659 -6.43844e-05)
(-0.000177934 -0.0017109 6.85388e-05)
(-0.000140179 -1.28574e-05 8.24846e-05)
(8.18076e-06 0.000239166 -4.79536e-06)
(3.63034e-06 6.92492e-06 -2.55663e-07)
(1.24351e-07 7.90291e-08 8.63115e-10)
(2.40081e-09 -4.57924e-10 3.02455e-10)
(5.17293e-11 -6.6897e-09 -3.26556e-12)
(2.11281e-11 5.12829e-09 2.19251e-11)
(-9.15372e-12 1.53683e-09 2.75426e-11)
(3.7068e-12 1.65706e-09 2.2603e-10)
(-2.3548e-12 9.53819e-09 -3.83452e-10)
(-1.8254e-11 -2.13198e-09 1.39176e-11)
(-1.64013e-11 -1.99496e-09 1.70689e-09)
(1.23888e-10 7.11707e-09 -1.59159e-10)
(3.53837e-11 -2.61236e-07 1.93507e-09)
(3.3813e-11 -7.134e-08 2.15644e-08)
(1.22847e-09 -8.20163e-08 -4.1978e-07)
(2.19567e-11 -3.76788e-09 5.88256e-09)
(7.88871e-11 -6.72034e-08 1.19961e-07)
(-3.88294e-11 -9.73755e-08 1.96727e-07)
(-8.21706e-11 -4.46872e-09 4.84037e-09)
(1.54352e-11 1.29827e-09 -3.10708e-09)
(3.29601e-12 1.23336e-10 -1.99621e-10)
(-5.90647e-13 1.92266e-11 6.24738e-11)
(1.19633e-11 -1.07215e-09 -1.27134e-10)
(-4.24409e-11 2.05472e-08 -7.78086e-10)
(9.21154e-10 -5.73139e-08 -5.76468e-11)
(-1.37335e-07 -7.35711e-06 1.34577e-10)
(5.91962e-07 2.38134e-05 -2.17443e-09)
(-1.26551e-07 1.60758e-05 -3.12275e-08)
(-7.25917e-07 2.28064e-05 -5.44987e-08)
(2.50471e-07 3.16718e-05 -8.51064e-09)
(1.33619e-07 3.84905e-06 -1.04292e-09)
(-3.30831e-08 -6.28971e-06 -3.99314e-10)
(-3.32731e-07 8.75294e-07 -2.12086e-09)
(3.10185e-07 -7.63378e-06 5.4537e-09)
(5.15923e-07 -0.000124929 -4.01852e-08)
(-1.98466e-07 1.82139e-05 5.07337e-07)
(2.8612e-08 0.00014643 1.42036e-07)
(-4.72089e-07 -0.000513403 1.29877e-06)
(-4.32067e-07 -0.000413447 1.78588e-06)
(4.01072e-07 2.50767e-05 -6.53558e-07)
(2.19656e-07 1.09945e-05 -3.75091e-08)
(5.83876e-09 3.76531e-07 2.85459e-09)
(9.46708e-12 7.30258e-09 1.94545e-10)
(7.38891e-13 1.29712e-10 4.97925e-12)
(-7.72189e-14 3.58183e-11 -2.10822e-14)
(-8.89954e-14 -2.68869e-11 8.98296e-14)
(2.60705e-14 -2.81616e-11 -1.88792e-13)
(2.63801e-14 8.32163e-13 -2.07677e-12)
(2.14915e-15 -3.93676e-11 4.05113e-12)
(4.08134e-14 7.97505e-12 -2.93722e-12)
(-4.28689e-14 1.59097e-11 -2.25388e-12)
(1.8072e-13 5.76217e-11 -3.19189e-12)
(5.44749e-13 -3.59052e-10 4.54042e-11)
(1.1006e-12 -4.93307e-11 -2.11881e-10)
(-4.99328e-13 -4.6111e-10 -1.50705e-09)
(-3.6189e-13 -1.83643e-14 -5.73966e-12)
(-1.64076e-12 -6.38872e-11 2.03522e-10)
(-5.6531e-14 -2.16781e-10 4.71819e-10)
(1.58616e-12 4.25794e-11 -5.57086e-11)
(4.28173e-13 8.97388e-12 -1.29525e-11)
(2.10887e-14 3.59826e-13 -4.43026e-13)
(-4.27601e-15 -5.96882e-14 -1.92809e-13)
(-7.51162e-15 1.97232e-12 -4.95394e-13)
(4.40857e-13 -3.28695e-11 8.60439e-12)
(-6.03155e-12 1.18477e-10 3.84148e-12)
(-1.24766e-11 -2.56048e-09 -4.07276e-13)
(1.99833e-09 3.76722e-07 3.32237e-12)
(1.01968e-09 -1.62535e-06 -2.16772e-10)
(-2.70672e-09 7.24105e-07 -3.27289e-10)
(-1.07715e-09 3.64614e-07 -6.38673e-11)
(7.1601e-10 3.68888e-08 3.24495e-13)
(3.93791e-11 -1.63554e-09 -2.22888e-11)
(1.7065e-10 1.27619e-07 1.30206e-11)
(-4.94602e-10 9.10846e-07 -4.84509e-11)
(-2.19367e-09 -7.23128e-07 3.67156e-10)
(5.01636e-10 -5.04511e-07 -4.44988e-09)
(-1.09043e-09 -1.78743e-07 -3.08873e-11)
(-5.99945e-09 -5.83135e-07 1.6593e-10)
(3.18064e-09 1.11454e-06 -7.77375e-09)
(6.06456e-09 6.02435e-07 7.08262e-09)
(-6.76474e-11 1.60258e-08 1.69453e-09)
(-4.20518e-11 2.60706e-11 9.45626e-11)
(-1.12968e-12 1.86964e-12 1.77966e-12)
(3.88255e-14 -1.411e-13 -4.46751e-14)
(1.39923e-15 -1.35184e-13 -5.73862e-16)
(-5.3219e-16 4.24391e-14 -7.9736e-15)
(1.45186e-15 1.17859e-13 9.85312e-16)
(2.41773e-15 -1.7986e-14 4.80086e-15)
(5.27998e-15 5.26077e-14 -9.05074e-15)
(4.49833e-15 -1.96244e-14 2.36527e-14)
(4.80333e-15 -7.40188e-14 5.57732e-15)
(-4.91472e-15 8.75576e-14 -1.01524e-14)
(-1.32975e-15 -5.62873e-13 2.72861e-13)
(-8.08835e-15 -1.39703e-12 -2.272e-12)
(2.8763e-14 -3.58481e-12 2.32295e-12)
(7.07624e-16 -8.52596e-14 1.64161e-14)
(-4.67171e-15 9.18396e-13 -3.60048e-13)
(5.58725e-16 3.98881e-12 -1.41483e-12)
(5.58951e-15 1.05882e-12 -2.50169e-13)
(-1.17188e-15 5.06883e-14 -1.06098e-14)
(-2.2149e-16 -2.69735e-15 3.69286e-16)
(-2.45688e-15 -1.36784e-15 7.94572e-16)
(-6.55793e-16 2.75512e-15 3.17766e-15)
(2.99781e-15 1.46699e-14 -1.39028e-14)
(-8.48591e-15 -1.08889e-12 -1.12198e-14)
(4.93513e-13 1.49997e-11 -1.60631e-15)
(1.30709e-12 3.00252e-11 6.53522e-14)
(3.43247e-11 -4.94923e-09 -1.25514e-12)
(6.3588e-12 -2.49457e-09 -1.54158e-12)
(-3.41975e-11 1.77702e-09 -1.41452e-13)
(-7.63713e-12 1.72863e-10 6.80395e-14)
(-6.76391e-13 -3.90848e-12 3.07093e-14)
(3.5574e-12 7.48476e-11 -3.42588e-14)
(-6.29267e-12 -4.27043e-10 -6.91392e-14)
(-1.44223e-12 1.30218e-09 1.12559e-12)
(4.76849e-12 5.02246e-09 8.7858e-12)
(4.73507e-11 5.70041e-11 -1.21798e-12)
(9.99864e-11 7.74304e-09 3.86065e-11)
(-3.33282e-11 1.49868e-08 4.87853e-10)
(-9.77195e-11 -1.66774e-10 2.54596e-10)
(-1.61682e-11 -1.042e-10 2.38482e-11)
(-6.94631e-13 -2.79801e-12 5.77126e-13)
(1.64139e-14 8.87772e-14 -2.47399e-14)
(4.58329e-15 9.82003e-15 -1.4792e-15)
(-1.15023e-14 4.43879e-15 -2.12123e-15)
(3.6763e-15 8.39079e-15 3.15165e-16)
(4.30382e-15 7.30696e-15 -1.66939e-15)
(2.60263e-15 8.15004e-16 6.06162e-15)
(1.16466e-15 -1.06078e-14 -2.10359e-16)
(-6.3865e-15 -6.61425e-15 8.00018e-16)
(-4.67491e-15 -1.30859e-14 -3.39706e-15)
(3.21692e-15 -2.69601e-14 5.97112e-15)
(3.85986e-15 1.03545e-14 5.32169e-15)
(-7.04299e-16 -1.3971e-14 -1.49061e-14)
(7.9286e-16 1.93401e-14 3.55842e-14)
(-7.3682e-17 -1.60407e-16 4.77569e-16)
(-4.55846e-16 -1.18767e-15 2.48171e-15)
(-6.55085e-17 9.83423e-15 -1.45944e-15)
(5.0286e-16 6.30705e-16 -1.35881e-15)
(1.1025e-15 -7.65599e-16 -1.51143e-15)
(1.71962e-16 -1.38957e-15 2.02248e-15)
(-2.04229e-15 1.99598e-15 -2.26544e-15)
(-1.09763e-15 6.82371e-15 1.5641e-15)
(1.28673e-15 -1.08486e-15 4.30334e-17)
(1.16788e-15 -1.12189e-15 9.51964e-16)
(1.18583e-15 1.96405e-14 3.51718e-15)
(-5.58958e-15 -1.11238e-12 -4.37748e-15)
(2.70802e-13 -2.92428e-12 -3.26302e-15)
(1.55076e-13 -7.83029e-11 5.71329e-16)
(-2.60105e-13 -1.72005e-11 2.77561e-15)
(-1.49784e-13 -1.39713e-12 -6.02926e-17)
(-1.16729e-14 -4.51927e-14 5.45276e-16)
(-5.58123e-15 1.24208e-13 -1.41783e-16)
(2.04023e-14 -8.05341e-12 1.06754e-15)
(1.5664e-14 1.42913e-11 -6.13727e-15)
(-2.58447e-14 -4.80347e-12 1.92953e-15)
(2.31202e-13 3.55338e-12 -1.42444e-14)
(8.0475e-13 -1.11326e-10 1.83124e-13)
(-1.07354e-13 -2.21313e-10 5.91183e-12)
(-7.9486e-13 -3.63401e-11 1.94386e-12)
(-1.35746e-13 -1.54319e-12 8.32952e-14)
(-8.83746e-15 2.29963e-14 -4.10482e-15)
(-1.11813e-15 1.68265e-14 -1.35619e-15)
(4.90799e-15 -1.61445e-14 1.09427e-14)
(2.10356e-15 3.65443e-15 -3.03903e-15)
(3.05265e-16 1.47129e-14 3.42881e-15)
(-2.2102e-15 -3.31996e-15 -2.51537e-15)
(-5.56113e-15 2.27328e-15 -4.16721e-15)
(2.40631e-15 -6.72904e-15 -3.40484e-15)
(4.52725e-15 -1.15819e-16 1.05158e-15)
(-3.25252e-15 8.53277e-15 3.60285e-15)
(4.65591e-15 9.64859e-15 -3.02148e-15)
(3.90263e-15 7.50604e-16 -8.97884e-15)
(-4.86255e-15 2.74935e-15 -9.9906e-15)
(-7.39875e-18 3.08334e-16 -4.5022e-15)
(5.50414e-17 -1.43505e-15 -2.80133e-15)
(-2.07663e-16 9.10484e-16 9.50165e-15)
(1.51532e-15 1.18792e-15 -2.82805e-15)
(9.19054e-16 1.30306e-15 -2.22306e-15)
(-2.39881e-15 -1.84984e-15 -1.20293e-15)
(1.09203e-15 -3.15686e-15 -2.60153e-15)
(1.52815e-15 1.72591e-15 -1.73937e-15)
(-2.12087e-15 3.01216e-15 3.86611e-15)
(-7.2135e-16 2.12691e-15 7.81739e-16)
(6.76348e-16 3.75693e-17 9.86056e-16)
(-3.7458e-16 -1.43217e-16 2.2479e-16)
(-4.41217e-16 -2.27482e-15 8.63168e-15)
(3.08187e-15 1.11112e-14 -5.57963e-16)
(1.30172e-15 -5.53246e-13 -6.75444e-16)
(-3.42545e-15 -3.06009e-13 5.58123e-16)
(-8.91287e-16 -2.34641e-14 -6.09284e-16)
(7.20525e-16 -2.64467e-18 1.68334e-15)
(-2.15998e-16 -1.50077e-16 -9.25027e-16)
(-5.42815e-17 1.15429e-14 -1.59872e-15)
(2.99592e-16 -4.18787e-14 -1.21906e-16)
(-1.75935e-17 -1.95149e-14 -1.48908e-15)
(4.42145e-17 1.3171e-14 -6.49545e-16)
(6.03736e-16 -4.87449e-13 2.92984e-15)
(-1.3938e-15 -1.62682e-12 2.12911e-14)
(1.02564e-15 -2.6599e-13 7.41003e-16)
(1.05095e-15 -1.26575e-14 1.59391e-15)
(-7.38535e-16 -1.80291e-15 1.90709e-15)
(-9.6205e-16 1.31452e-14 3.15994e-15)
(-1.91047e-15 -3.92356e-15 -4.88828e-15)
(2.21874e-15 -5.90409e-15 6.88371e-15)
(6.05779e-16 -1.57721e-16 1.6578e-15)
(-1.12075e-15 -4.31507e-15 9.0711e-16)
(1.77821e-15 6.0768e-15 6.49355e-15)
(-1.35939e-16 1.52791e-14 9.98482e-15)
(-3.4585e-17 1.0262e-14 1.41023e-15)
(-3.37746e-17 -7.31982e-15 -8.21147e-15)
(-7.49105e-16 1.52742e-14 3.06517e-15)
(4.71797e-16 -8.83198e-15 -3.71642e-15)
(-4.8952e-16 8.69866e-16 -3.3353e-15)
(-5.51104e-16 -7.24728e-16 2.33169e-15)
(7.98173e-16 9.91517e-17 -3.65015e-15)
(9.38331e-16 4.04287e-16 -4.11964e-15)
(-1.71017e-17 -1.86987e-16 -4.70237e-15)
(-1.18484e-15 -3.19715e-15 -2.42586e-15)
(-9.48377e-16 -3.45029e-15 -1.38489e-15)
(2.01217e-15 8.67151e-16 -5.53075e-16)
(9.26641e-16 1.11101e-16 -1.49679e-15)
(-7.74324e-16 4.24419e-16 5.73952e-16)
(-1.15094e-16 8.25042e-16 5.34612e-16)
(-1.0024e-17 -1.25451e-15 2.75079e-16)
(9.60161e-17 -1.14375e-15 -1.41975e-15)
(-3.14655e-17 4.1978e-15 -8.51725e-16)
(3.27646e-16 -3.60105e-15 -2.73041e-15)
(-6.32976e-16 -7.9075e-15 -4.32246e-16)
(4.46645e-17 -3.43205e-15 9.26423e-16)
(4.14532e-16 3.61437e-16 -4.69338e-17)
(-3.38496e-16 -4.12633e-16 -7.85494e-16)
(1.11951e-16 2.3514e-19 -1.44489e-15)
(-6.37841e-17 5.22346e-17 -5.9445e-17)
(4.45914e-16 -5.63685e-16 -1.24885e-16)
(1.27508e-15 -3.43272e-16 -9.64146e-16)
(1.88431e-15 1.71656e-16 -8.54238e-16)
(4.25745e-16 1.35232e-15 1.54617e-15)
(1.532e-15 3.61934e-16 -3.14693e-16)
(-3.66084e-15 3.40061e-15 -1.6586e-15)
(-6.93012e-15 -1.09142e-15 -1.29224e-15)
(4.29003e-15 4.45559e-15 -3.39186e-15)
(-2.28233e-15 -4.5663e-16 -3.87119e-15)
(-4.69647e-15 1.42272e-15 8.78264e-16)
(4.13023e-15 7.94513e-16 5.01075e-16)
(1.13428e-15 -2.75424e-15 5.36477e-15)
(1.05175e-15 6.72336e-16 -1.03204e-15)
(4.2842e-15 -2.76298e-16 2.82614e-15)
(4.93588e-15 1.51656e-15 2.19411e-15)
(-7.23303e-15 2.21694e-16 -5.7387e-15)
(-8.7333e-16 -1.25514e-15 -5.55871e-15)
(4.39841e-15 -2.55323e-15 -3.05862e-16)
(-3.53895e-15 3.80447e-15 3.58785e-16)
(-9.27689e-16 5.35593e-16 1.38049e-15)
(-1.19872e-15 4.3872e-17 3.13792e-15)
(1.93259e-16 2.50064e-15 1.40644e-15)
(-4.97613e-16 -8.74374e-16 -1.39545e-15)
(-4.77616e-16 1.70077e-16 1.52813e-16)
(-8.12509e-16 6.93378e-16 -1.66496e-15)
(-1.20776e-16 -3.61724e-16 -2.44579e-15)
(3.12461e-15 2.80476e-16 -1.11665e-15)
(1.32604e-15 -1.52801e-15 -2.45303e-15)
(-1.83405e-15 1.05751e-15 -3.67281e-15)
(-1.78752e-15 1.87309e-15 5.18584e-15)
(-4.28844e-16 4.77063e-16 -1.59031e-15)
(2.83458e-15 2.15484e-16 -2.40644e-15)
(-1.95211e-15 2.95544e-15 2.37604e-15)
(-3.86569e-15 1.38692e-15 1.25345e-15)
(1.60355e-15 1.72702e-15 3.52455e-15)
(1.15539e-15 4.79426e-16 4.7841e-16)
(7.77395e-16 -7.25328e-16 5.38186e-15)
(6.1463e-16 -5.75965e-17 4.49961e-15)
(2.77374e-17 4.88936e-16 -1.66706e-15)
(-3.90264e-16 1.9341e-16 -2.49172e-15)
(4.80682e-17 1.12566e-16 9.33119e-16)
(2.8761e-16 -7.73257e-16 1.17497e-15)
(8.66385e-16 -2.15636e-15 1.96757e-15)
(7.35913e-16 -2.67104e-15 -3.15995e-15)
(-4.73584e-16 -3.09811e-15 -2.00777e-15)
(6.4371e-16 -6.10356e-15 5.31256e-15)
(2.50989e-15 5.08777e-15 -1.17413e-15)
(-8.81249e-16 5.67166e-15 -5.27732e-16)
(-2.63727e-15 -3.96578e-15 -6.49839e-15)
(-8.73628e-16 8.78701e-15 3.1983e-15)
(-4.75631e-16 2.39611e-15 -7.09395e-16)
(4.77907e-16 2.03602e-15 3.25601e-15)
(1.34402e-16 1.78808e-15 3.51757e-16)
(2.02252e-15 -9.78863e-16 4.26814e-15)
(-3.64888e-16 -3.88388e-15 -1.36844e-15)
(-9.4351e-16 -4.84952e-15 5.6869e-15)
(-1.60477e-15 7.28778e-15 4.99147e-16)
(1.73987e-15 -7.75236e-15 -4.34702e-15)
(2.73389e-15 -2.17129e-15 -1.38827e-15)
(-2.69117e-15 1.52545e-15 -1.79376e-15)
(-7.44668e-16 -3.34803e-15 -8.7327e-16)
(2.49255e-15 2.3293e-16 3.9652e-15)
(-4.49791e-16 -1.27917e-15 2.6032e-15)
(1.06476e-15 3.32305e-16 -8.83855e-15)
(-1.57425e-15 2.09121e-16 3.32992e-16)
(-1.30663e-15 1.76049e-15 4.30488e-15)
(1.12742e-15 2.96552e-16 -1.2947e-15)
(1.3977e-15 -3.1353e-15 -7.53863e-16)
(1.57899e-15 -1.32573e-15 9.61508e-16)
(-3.24326e-16 3.63647e-16 1.91098e-15)
(-1.05987e-15 8.28422e-16 -2.68906e-16)
(1.44641e-15 1.56307e-15 -3.82825e-15)
(9.40577e-16 -1.93919e-15 -6.30367e-15)
(-4.727e-17 4.78748e-15 9.35118e-15)
(-1.46372e-15 2.31053e-15 1.42159e-16)
(-1.68816e-15 1.8432e-15 1.64764e-15)
(2.26525e-17 9.62753e-16 5.2248e-15)
(3.63462e-16 -2.05711e-16 1.86398e-16)