/*--------------------------------*- C++ -*----------------------------------*\
| =========                 |                                                 |
| \\      /  F ield         | OpenFOAM: The Open Source CFD Toolbox           |
|  \\    /   O peration     | Version:  5.0                                   |
|   \\  /    A nd           | Web:      www.OpenFOAM.org                      |
|    \\/     M anipulation  |                                                 |
\*---------------------------------------------------------------------------*/
FoamFile
{
    version     2.0;
    format      ascii;
    class       volVectorField;
    location    "50.4676134421789371";
    object      MD1Tuz;
}
// * * * * * * * * * * * * * * * * * * * * * * * * * * * * * * * * * * * * * //

dimensions      [0 -1 -1 1 0 0 0];

internalField   nonuniform List<vector> 
60000
(
(-0.269008 8.94817 -0.526592)
(-0.206423 3.87769 -0.611019)
(-0.171886 -0.518643 -0.765083)
(-0.111212 -4.49988 -0.886844)
(0.062701 -6.76122 -0.855528)
(0.226734 -5.39763 -0.787837)
(0.25465 -1.27266 -0.796142)
(0.154387 3.59117 -0.766946)
(0.021799 7.09511 -0.67276)
(-0.075685 8.59512 -0.71345)
(-0.196284 8.13076 -0.951717)
(-0.333076 4.34331 -1.20364)
(-0.335252 -2.73677 -1.25192)
(-0.176108 -9.36557 -1.1496)
(-0.0060915 -12.6421 -1.12285)
(0.080186 -13.2668 -1.25965)
(0.140619 -12.6236 -1.45032)
(0.245845 -10.5178 -1.49367)
(0.332161 -6.35008 -1.25656)
(0.235786 0.0775253 -0.594514)
(-0.062235 5.69274 0.383118)
(-0.233583 5.16887 1.06288)
(-0.0520715 1.39134 1.0941)
(0.227418 1.35826 0.930527)
(0.340677 4.75886 1.01903)
(0.279336 9.16077 1.19891)
(0.028725 13.0957 1.12313)
(-0.46065 13.2987 0.588581)
(-0.89174 4.08157 -0.180861)
(-0.733925 -13.8012 -0.619978)
(-0.148265 -27.1758 -0.516583)
(0.24805 -28.2554 -0.193603)
(0.403047 -22.5585 0.116171)
(0.622088 -14.5745 0.188277)
(0.837003 -2.38363 -0.0746332)
(0.515302 14.9184 -0.345179)
(-0.0850085 24.3096 -0.315788)
(-0.246428 20.6726 -0.243369)
(-0.203541 16.5602 -0.308739)
(-0.258042 13.4016 -0.438376)
(-0.664822 1.82315 -0.997086)
(-0.728136 1.69653 -1.25703)
(-0.656264 1.06498 -1.6801)
(-0.507639 0.712922 -2.12207)
(-0.159867 0.174782 -2.2458)
(0.30398 -0.86151 -2.08784)
(0.626631 -1.57901 -2.04688)
(0.67459 -1.29954 -2.05394)
(0.481252 -0.219293 -1.84625)
(0.188125 0.883539 -1.74701)
(-0.2127 1.68122 -2.12732)
(-0.729784 2.29613 -2.8118)
(-1.01431 2.31884 -3.24052)
(-0.805881 1.53696 -3.19659)
(-0.387235 0.56608 -2.99946)
(-0.08664 -0.119465 -2.94865)
(0.122385 -0.411758 -3.1535)
(0.36215 -0.604018 -3.45322)
(0.703306 -1.03199 -3.62855)
(0.955859 -0.764009 -3.07081)
(0.582837 1.35106 -1.15703)
(-0.176537 3.65506 1.36977)
(-0.327331 3.32311 2.60087)
(0.089036 1.01233 2.69736)
(0.411878 -1.08038 2.93662)
(0.533541 -2.32939 3.39919)
(0.38615 -2.44993 3.41388)
(-0.4018 -0.891125 2.36936)
(-1.75232 1.94754 0.322332)
(-2.34636 3.06181 -1.56318)
(-1.29597 0.73677 -2.02822)
(0.192475 -1.78339 -1.30277)
(0.93665 -2.24143 -0.15681)
(1.35065 -2.07422 0.708077)
(2.05439 -2.96272 0.590163)
(2.12677 -3.13317 -0.377606)
(0.674915 0.396111 -1.01025)
(-0.510555 2.37018 -0.909941)
(-0.509575 1.54153 -0.77429)
(-0.483855 1.35214 -0.848233)
(-0.18953 -6.37188 -0.104822)
(-0.236773 -3.22625 -0.17242)
(-0.23124 -0.358172 -0.290176)
(-0.169284 2.22511 -0.472474)
(-0.08969 4.00449 -0.651943)
(0.0232255 3.63799 -0.693011)
(0.167207 1.33667 -0.641343)
(0.251947 -1.73732 -0.60604)
(0.217442 -4.23913 -0.522838)
(0.108772 -5.57076 -0.39233)
(-0.0371235 -5.66435 -0.400646)
(-0.220819 -3.7565 -0.603054)
(-0.349379 0.361966 -0.834344)
(-0.306103 4.63137 -0.90324)
(-0.15116 7.13337 -0.798188)
(-0.0114915 8.0029 -0.630304)
(0.088501 7.90794 -0.584918)
(0.164636 6.97303 -0.779747)
(0.275798 5.04235 -1.15949)
(0.426664 1.61787 -1.36029)
(0.363376 -2.14449 -0.947561)
(-0.019689 -2.80846 0.129262)
(-0.318073 -1.08096 0.95558)
(-0.249058 -1.03739 1.0551)
(-0.039205 -2.67768 0.936253)
(0.100288 -4.92843 0.92877)
(0.151939 -7.29245 0.928916)
(0.023411 -8.02596 0.687105)
(-0.36178 -3.4512 0.0862935)
(-0.701493 6.99669 -0.585746)
(-0.569196 15.8477 -0.879208)
(-0.07815 17.2354 -0.72148)
(0.315234 14.1242 -0.309168)
(0.466053 9.74889 0.141324)
(0.592584 3.1679 0.325927)
(0.722407 -7.25075 0.106239)
(0.449542 -14.3468 -0.222099)
(-0.091331 -12.548 -0.278783)
(-0.285248 -10.1414 -0.146445)
(-0.20321 -8.70762 -0.0893805)
(-0.0397453 -2.1699 0.00899197)
(-0.0392298 -1.31059 0.00659735)
(-0.0296617 -0.275922 -0.00337999)
(-0.00599025 0.582715 -0.0204064)
(0.0066863 1.14528 -0.0469594)
(0.00488295 1.35536 -0.0683248)
(0.0129558 0.950085 -0.0742532)
(0.0324279 -0.0624665 -0.067657)
(0.0369798 -1.1213 -0.0477421)
(0.021006 -1.78555 -0.0173622)
(-0.00770365 -1.94294 -0.00568039)
(-0.0411526 -1.48172 -0.0374903)
(-0.0513089 -0.228429 -0.0857746)
(-0.0246222 1.39292 -0.0896835)
(0.0030846 2.52693 -0.0538801)
(0.0008596 2.8296 -0.0113257)
(-0.0008113 2.47059 0.0119329)
(0.0300779 1.77721 -0.0340781)
(0.0887977 1.00939 -0.178818)
(0.12654 -0.100948 -0.313099)
(0.061011 -1.80557 -0.239147)
(-0.061965 -3.20603 0.0572941)
(-0.110383 -2.61094 0.223202)
(-0.0723239 -0.928204 0.173803)
(-0.020041 -0.204469 0.110974)
(0.0107261 -0.433493 0.0860386)
(0.0293502 -1.07147 0.0931991)
(0.0266782 -1.68874 0.0861559)
(-0.048315 -1.19958 -0.0145542)
(-0.142603 1.19685 -0.166666)
(-0.111663 4.13206 -0.214329)
(0.008507 5.58517 -0.167771)
(0.0800325 5.00302 -0.0927806)
(0.0944382 3.31819 -0.00808492)
(0.114537 1.27139 0.0604428)
(0.117586 -1.41447 0.0599411)
(0.0465425 -4.39072 -0.00123443)
(-0.0366545 -5.10548 -0.0301298)
(-0.0603449 -3.85113 -0.0177026)
(-0.0491885 -2.8106 0.00180345)
(-0.00136143 -0.18966 -0.00421093)
(-5.6655e-05 -0.0405981 0.00239535)
(0.00496657 0.129737 0.00574337)
(0.00677947 0.228089 0.0119137)
(0.00523955 0.22347 0.0172151)
(-0.00138025 0.210056 0.0139153)
(-0.0093372 0.184822 0.0054147)
(-0.0065816 0.0579195 -0.00989905)
(0.00216217 -0.119113 -0.0121685)
(0.00629455 -0.239106 -0.000484125)
(0.0010867 -0.264385 -0.000205409)
(-0.00662086 -0.170058 -0.00452986)
(0.0100852 0.0296736 -0.00437197)
(0.0388846 0.272339 0.0122706)
(0.0279466 0.452013 0.0236149)
(-0.020425 0.449074 0.00094083)
(-0.0451539 0.34732 -0.00886623)
(-0.0198428 0.197534 0.00410658)
(0.0401348 -0.0573739 -0.034817)
(0.0755161 -0.419671 -0.113821)
(-0.0269401 -0.523012 -0.0802695)
(-0.124679 -0.928223 0.0501652)
(-0.0302782 -1.15769 -0.00920685)
(0.0594213 -0.399935 -0.121332)
(0.0259931 0.112194 -0.0722291)
(-0.00816228 0.0772961 -0.0178903)
(-0.00581154 -0.0340644 -0.00202309)
(0.00567273 -0.176066 0.0127056)
(-0.00242646 -0.230479 0.0130252)
(-0.0354167 0.163139 -0.0272588)
(-0.02071 0.722216 -0.03796)
(0.0311404 0.928443 -0.0106832)
(0.0317689 0.828656 -0.00289493)
(-0.00216608 0.543777 -0.00153089)
(-0.00053665 0.10939 0.000703965)
(0.0162156 -0.432286 0.0231312)
(-0.00990242 -0.803064 0.0318708)
(-0.0237238 -0.872831 0.0223874)
(0.00307452 -0.694669 0.00263865)
(0.00913024 -0.399634 -0.00793373)
(0.0100931 -0.0298158 -0.0082386)
(0.00458446 -0.00507256 -0.00330035)
(0.00702237 -0.00389709 0.000569122)
(0.00673567 -0.0125543 0.00617258)
(0.0041332 -0.0265265 0.0134658)
(-0.00026065 -0.0312688 0.0141551)
(-0.00753667 -0.00875232 0.0136776)
(-0.0090854 0.00981388 -4.698e-05)
(-0.0039329 -0.00448507 -0.0145253)
(0.000755482 -0.0243056 -0.00268374)
(0.00173472 -0.0442866 0.00590578)
(-0.000655054 -0.0282231 -0.0010108)
(0.00863755 0.000130852 0.00793691)
(0.0320981 -0.0606522 0.0183004)
(0.0269982 -0.165073 0.0186259)
(-0.0126253 -0.180912 -0.0125067)
(-0.0339165 -0.0740396 -0.0344013)
(-0.0254075 0.0254876 -0.00744421)
(0.00132415 -0.0118023 -0.00630451)
(0.0620328 -0.368796 -0.0540274)
(-0.00609571 -0.324591 -0.0344228)
(-0.1506 -0.0323406 0.0810286)
(-0.0395025 -0.241525 -0.0110664)
(0.104369 -0.123001 -0.157139)
(0.0467219 -0.0466395 -0.0819454)
(-0.00923864 -0.0355087 -0.00896156)
(-0.00498119 -0.00506991 -0.000810982)
(-0.000585824 -0.000821145 -0.00107104)
(-0.00222849 -0.0375542 0.00279479)
(-0.0109112 0.0141901 0.00627575)
(-0.00637822 0.160497 -0.00323377)
(0.0221137 0.106341 0.0018423)
(0.0273775 -0.00901407 0.00792138)
(-0.00335845 0.00285353 0.0128192)
(-0.0198388 0.0434388 0.00896004)
(-0.00867698 -0.0526676 0.00851713)
(-0.0136401 -0.116283 0.0219799)
(-0.0217474 -0.0294504 0.0146613)
(0.0040085 -0.0341454 -0.00209745)
(0.0204633 -0.0696304 -0.0098241)
(0.00813203 0.000544403 -0.00783601)
(0.00375038 -0.00206881 -0.00434239)
(0.00351513 -0.0139052 -0.000761828)
(0.00303945 -0.0339963 0.00134886)
(0.00225764 -0.0492873 0.00427131)
(0.00144467 -0.0574943 0.0047533)
(-0.00272604 -0.0429387 0.0058323)
(-0.00561556 -0.0124658 0.00205994)
(-0.00285093 -0.000791607 -0.00845878)
(0.00028349 0.00213669 -0.00688547)
(0.000371172 -0.00353763 0.00545803)
(0.000109708 -0.00990138 0.00611071)
(0.00486932 -0.00237287 0.00725561)
(0.0122523 -0.0405483 0.0161421)
(0.00814528 -0.162341 0.00726249)
(-0.0061711 -0.203197 -0.0130388)
(-0.012167 -0.116005 -0.0226504)
(-0.00896654 -0.0324363 -0.00419322)
(-0.0210795 0.0356153 -0.000643252)
(0.0251576 -0.143452 -0.0209177)
(0.0265704 -0.382282 -0.0085107)
(-0.108243 0.0384628 0.0843733)
(-0.0443225 0.246101 0.0332222)
(0.0870036 0.0977291 -0.0765474)
(0.0383188 -0.0804042 -0.0342243)
(-0.00117189 -0.0388104 0.000330314)
(-0.000157877 -0.00640485 0.000479519)
(0.000947184 -0.000970388 0.00133313)
(3.69556e-05 -9.44822e-05 -0.0020665)
(-0.00518859 0.0152075 -0.00107996)
(-0.00694936 0.0635999 0.00724781)
(0.00402798 0.0373733 0.00457955)
(0.0151003 -0.0810795 -0.000834673)
(0.00663725 -0.110164 0.00380983)
(-0.00772009 -0.0340255 0.013861)
(-0.00762995 0.00853269 0.00927583)
(-0.00567256 0.0012392 0.0119145)
(-0.0103373 0.0786534 0.00696718)
(-0.00367115 0.115686 -0.00837916)
(0.00867015 0.0411177 -0.0135389)
(0.00240864 0.0119389 -0.00684179)
(0.00203181 0.00146907 -0.00327284)
(0.00155486 -0.00499544 -0.00068462)
(0.000656781 -0.013796 0.00104445)
(3.5965e-05 -0.0201404 0.00118902)
(0.0007219 -0.0271774 0.00159542)
(0.000188435 -0.0282634 0.00103123)
(-0.00174738 -0.0111774 0.000678394)
(-0.00137805 0.00117169 -0.00200129)
(0.000302915 0.00218702 -0.00483609)
(-0.000322494 0.00083022 -0.00121739)
(-0.0005217 -0.00241609 0.00690507)
(0.00343104 -0.00415938 0.0071517)
(0.00493997 -0.0151184 0.00772808)
(-0.00075264 -0.0550218 0.00247388)
(-0.00483218 -0.068642 -0.00853913)
(-0.00498479 -0.0339456 -0.00912028)
(0.000579519 -0.0176336 -6.92025e-05)
(-0.0166273 0.0122833 0.000902622)
(-0.0104686 0.067204 -0.0042405)
(0.0237401 -0.208378 0.00143258)
(-0.0402221 -0.0286384 0.0480836)
(-0.028177 0.346371 0.034463)
(0.0465348 0.130846 -0.0215414)
(0.0226552 -0.0277292 -0.0108842)
(0.00344002 -0.00631911 -0.000359498)
(0.00142962 -0.000849205 -3.06908e-05)
(0.000407628 -0.000140869 0.000286955)
(0.000491251 -0.00527703 0.000682547)
(0.000128616 -0.000182314 -0.00203831)
(-0.00227033 0.0241448 6.46822e-05)
(-0.00243462 0.0372599 0.00492382)
(0.00170412 -0.00164044 0.0023289)
(0.00419835 -0.0475077 -0.00140632)
(0.000583191 -0.034336 0.00475963)
(-0.00234453 -0.00167889 0.00776923)
(-0.00165963 0.00581125 0.00527831)
(-0.00202808 0.0267602 0.00451488)
(-0.00205021 0.0604253 -0.00346738)
(0.00065689 0.0441274 -0.00935313)
(0.000125705 0.00861736 -0.00393)
(0.000514609 0.00262584 -0.00229334)
(0.000641 -0.000992836 -0.00045211)
(0.00023337 -0.00373385 0.000820566)
(-0.000209593 -0.00328253 0.00049537)
(-0.000117996 -0.00414463 0.000850063)
(0.000197227 -0.00742862 0.000535337)
(-8.26185e-05 -0.00501111 -0.000356916)
(-0.000309405 0.00119287 -0.000365398)
(0.000212628 0.00129988 -0.00127475)
(-0.000484865 0.000408481 -0.00241886)
(-0.000830712 0.00232458 0.00288638)
(0.00245768 0.000330316 0.00618495)
(0.00275688 -0.0088841 0.00343105)
(-0.00172206 -0.0171831 -2.2485e-05)
(-0.00206086 -0.010236 -0.00355862)
(-0.00262862 0.00357376 -0.00332128)
(-0.000637175 0.0118373 0.000937778)
(-0.00443735 -0.00480355 0.00019611)
(-0.0156321 0.0911581 0.00185085)
(0.00754113 0.0157107 -0.000673672)
(-0.00345955 -0.0219113 0.0137544)
(-0.0138445 0.218144 0.0176786)
(0.0157811 0.0876278 -0.00458431)
(0.0122906 0.00832985 -0.00309577)
(0.0037687 0.00439559 -0.00040989)
(0.000922934 0.00213967 -0.000112633)
(0.000110488 -0.00023582 -0.000131015)
(-1.85623e-05 0.000503949 0.000217511)
(0.000191241 -0.00270082 7.63234e-05)
(0.000113744 -0.000159303 -0.000661911)
(-0.000499755 0.00867936 0.00041565)
(-0.000599271 0.0119935 0.00155057)
(0.000298586 -0.000195069 0.00028232)
(0.000657616 -0.0092585 6.69075e-06)
(-8.44315e-05 -0.00269326 0.00233365)
(-0.000355461 0.00252253 0.00222546)
(-0.000188994 0.00518777 0.00166894)
(-0.000337965 0.012405 -5.9634e-05)
(-0.000273478 0.0151477 -0.00313335)
(-0.000141026 0.00261485 -0.00126967)
(5.06335e-05 0.00178897 -0.00136001)
(0.000234429 0.000260995 -0.000457923)
(0.000191182 -0.000869163 0.000234743)
(-2.99606e-05 -0.000617803 0.000140114)
(-0.000113593 4.48356e-05 0.000183917)
(-5.30624e-06 -0.000163324 0.000273687)
(-1.5453e-06 -0.000857624 -9.46302e-05)
(-8.45228e-05 0.000220613 -0.000153462)
(0.000137728 0.000466272 -0.000121137)
(-7.7595e-05 -0.000623313 -0.00100767)
(-0.000507016 0.00283083 0.000733339)
(0.00103767 0.0024798 0.00351435)
(0.0012691 -0.00694969 0.00159285)
(-0.000952853 -0.00768589 -0.000317039)
(-0.000500578 -0.000730058 -0.00073902)
(-0.000317133 0.000341282 -0.000896222)
(-0.00115849 0.0113714 0.000703363)
(-0.000240394 0.00159937 -0.000101607)
(-0.00536727 0.0309277 0.0014795)
(0.000258953 0.0698367 3.12941e-05)
(0.00101175 -0.00319788 0.00184122)
(-0.00528773 0.0819658 0.00663978)
(0.0030346 0.0497747 0.000329678)
(0.00520835 0.0140157 -0.00069052)
(0.00202831 0.00367985 -0.000253703)
(0.000451536 0.000546738 -0.000106468)
(7.44574e-05 0.000115216 -4.24586e-05)
(-4.39422e-06 0.000190328 -7.51829e-05)
(-2.54883e-05 0.000197525 9.48267e-05)
(1.47625e-05 -0.000681159 -9.71289e-06)
(6.90434e-05 -0.000309526 -8.65938e-05)
(-3.17052e-05 0.0015958 0.000126752)
(-0.000126296 0.00237456 0.00020516)
(1.95081e-05 0.000198544 -4.12696e-05)
(4.26335e-05 -0.000575572 0.000159916)
(-4.11481e-05 0.000597111 0.000271639)
(-1.97136e-05 0.000997888 0.000261463)
(-1.14324e-05 0.00143439 0.000173917)
(-8.94489e-05 0.00252173 -0.000430356)
(-2.66054e-05 0.000524788 -0.00028769)
(-1.54396e-05 0.000772633 -0.000430804)
(3.02472e-05 0.000306645 -0.000213094)
(2.18762e-05 -0.000155445 2.27972e-05)
(-3.72091e-06 -0.000453344 5.18201e-05)
(-6.81214e-06 -3.57605e-05 2.3074e-05)
(-3.43369e-06 6.21308e-06 4.3445e-05)
(3.27767e-06 -1.56423e-05 2.67852e-06)
(-7.53988e-06 1.39689e-05 -1.76027e-05)
(1.30958e-05 0.000320427 -6.30922e-06)
(5.37013e-05 -0.000544959 -0.000157233)
(-0.000102046 0.000865832 5.94125e-05)
(0.000202539 0.00147559 0.00126111)
(0.000414164 -0.00312551 0.00067636)
(-0.000274078 -0.00319136 -9.8286e-05)
(-0.000250986 0.000363034 -0.000103051)
(0.000104099 -0.00159146 -0.00015478)
(-0.000274011 0.00166083 8.98654e-05)
(-6.91248e-05 0.0029438 7.39844e-05)
(6.45655e-05 0.00245148 3.89876e-05)
(-8.57057e-05 0.02609 0.000333175)
(-0.000944265 0.00206674 0.000516109)
(-0.00172031 0.0191204 0.00188599)
(0.000412695 0.0207097 0.000676949)
(0.00170285 0.0077163 -0.000119726)
(0.000640775 0.00172815 -0.000140799)
(9.62321e-05 0.000214874 -6.18191e-05)
(2.66769e-05 6.99581e-07 -2.21302e-06)
(1.85649e-07 -7.80041e-05 -5.88115e-07)
(-3.36622e-07 1.86487e-05 -9.62853e-07)
(-5.36167e-07 2.56284e-05 2.09498e-06)
(5.24403e-07 -4.16489e-05 -1.47584e-06)
(1.14621e-06 -0.000255242 -1.84459e-06)
(-5.37591e-07 8.7841e-05 1.46953e-06)
(-8.30631e-07 0.000258694 -5.49511e-06)
(2.84144e-07 8.12821e-06 1.21624e-06)
(-1.57648e-06 8.52404e-05 3.67148e-05)
(-8.9423e-07 0.00017477 4.40471e-06)
(2.46419e-06 0.000165101 1.98305e-05)
(-2.60696e-06 0.000222467 3.37073e-06)
(-3.72805e-06 1.2715e-05 -1.04828e-05)
(-1.65606e-06 9.34415e-05 -0.000297172)
(3.97874e-06 6.89941e-05 -0.000193193)
(2.6882e-06 -1.6624e-05 -3.19187e-06)
(-2.32269e-07 -1.06525e-05 6.04254e-06)
(-7.00381e-08 -2.99511e-06 2.24409e-06)
(-4.56009e-08 1.44428e-05 2.08225e-07)
(5.69851e-08 9.65203e-06 9.7273e-07)
(-1.39008e-06 2.36482e-06 -4.49851e-07)
(-8.85096e-07 3.73266e-05 3.32503e-07)
(5.66599e-05 -5.47769e-05 -1.98133e-05)
(-1.19039e-06 -0.000127941 -9.50416e-06)
(4.212e-05 0.000334909 0.000123265)
(9.24205e-05 -0.000854429 0.000271913)
(-7.74068e-05 -0.00114644 2.60397e-05)
(-9.26795e-05 0.000111695 4.60504e-06)
(-8.96905e-06 -0.000271827 -4.51257e-06)
(-2.05804e-05 -0.000274279 -2.45727e-05)
(-4.379e-05 0.000729405 3.14124e-05)
(0.000344887 -9.81519e-05 -4.65195e-05)
(0.000190413 0.000823012 1.03757e-05)
(-0.000674978 0.00063337 0.000301257)
(-0.000603069 0.00353941 0.000351747)
(0.000214572 0.00627281 9.08648e-05)
(0.000425447 0.00239429 -1.27702e-05)
(0.00013836 0.000350331 -4.92904e-05)
(2.0026e-05 9.83473e-05 -3.1187e-06)
(4.42267e-09 -1.41841e-07 -4.37266e-08)
(-2.81669e-09 -1.01094e-07 5.8258e-09)
(3.65964e-10 -8.29115e-07 6.47027e-09)
(1.16056e-09 1.14044e-06 -1.30524e-08)
(-1.03593e-09 1.1487e-06 6.26523e-09)
(-4.74587e-09 -7.93946e-07 4.16499e-09)
(1.97193e-09 -3.08017e-06 -2.33593e-09)
(5.59381e-09 1.18938e-06 5.55315e-08)
(-1.66612e-09 -1.49022e-08 -3.74348e-07)
(-7.14757e-08 1.40822e-07 -2.49731e-08)
(-1.32085e-08 5.77413e-06 5.37747e-08)
(5.78738e-08 3.43354e-06 8.17031e-07)
(-9.35987e-07 -3.29201e-06 8.15781e-06)
(-2.83681e-08 3.17201e-06 -4.70718e-06)
(-2.6332e-08 1.24877e-05 -1.18416e-05)
(3.20057e-08 8.69675e-06 -1.00304e-05)
(3.01866e-08 -7.95454e-07 -4.16225e-07)
(-4.00528e-09 -2.75282e-07 9.99519e-08)
(-1.11399e-09 -2.08292e-08 1.63162e-08)
(-1.68295e-10 -4.16491e-08 4.68247e-09)
(-2.89748e-09 1.31478e-07 -1.01702e-08)
(1.04607e-07 -2.32924e-07 -1.68462e-07)
(-2.55512e-06 4.8083e-06 -1.69822e-07)
(3.93008e-06 1.91008e-06 -6.95719e-10)
(4.11548e-06 -0.00018279 2.16774e-06)
(1.75701e-06 6.08577e-06 1.48634e-05)
(4.20433e-06 -0.000322609 1.06905e-05)
(-5.33756e-06 -0.000300027 6.46184e-07)
(-5.65341e-06 -6.64748e-05 -2.03265e-08)
(3.16147e-07 7.6015e-06 -9.62612e-07)
(-6.55605e-07 -3.63556e-05 -6.39565e-07)
(-1.90407e-05 7.6213e-05 -1.11715e-07)
(6.34807e-05 0.000103827 -1.6573e-07)
(0.000104571 -0.00105732 7.89832e-07)
(-0.000159211 -0.000498364 0.000109797)
(-0.000148435 0.00114022 2.37434e-05)
(9.05322e-05 0.00146665 -6.34252e-06)
(6.2886e-05 0.000460743 -2.35461e-05)
(5.76468e-06 6.71505e-05 -1.57188e-06)
(-7.5203e-07 2.1204e-08 -4.13442e-08)
(-1.94069e-08 -7.31527e-09 1.60282e-09)
(-4.84637e-10 2.42932e-10 2.37848e-10)
(-2.0054e-11 1.95401e-09 -9.62895e-12)
(4.93167e-12 -9.85056e-10 3.99728e-11)
(-3.55763e-12 -1.92211e-09 -1.64422e-12)
(5.18375e-12 2.47509e-09 1.07087e-10)
(-2.42719e-12 1.39364e-08 -1.84805e-10)
(-1.63167e-11 -4.11423e-09 -1.08467e-10)
(-1.37698e-11 -4.75852e-09 1.10131e-09)
(-8.66246e-11 1.44805e-09 -4.99402e-11)
(-1.93708e-10 2.34027e-07 1.39504e-10)
(5.3121e-10 4.55152e-08 7.44021e-09)
(-2.52447e-09 4.08468e-08 -3.05864e-07)
(-8.83536e-11 8.27765e-09 -1.56144e-08)
(-5.51225e-11 8.4517e-08 -7.32988e-08)
(1.37244e-10 8.79679e-08 -9.03603e-08)
(6.3632e-11 -1.2322e-08 -4.64233e-09)
(-5.49057e-11 -3.38796e-09 1.00599e-09)
(-8.59526e-12 -2.14635e-10 9.15636e-11)
(-2.36915e-14 -1.85092e-11 -4.5462e-11)
(1.07231e-11 2.94766e-10 1.47677e-10)
(-1.70383e-10 8.75503e-09 2.05832e-09)
(-3.74487e-09 -3.16392e-07 2.4292e-09)
(1.57446e-07 7.74183e-06 2.16896e-10)
(-3.61699e-07 -1.21664e-05 1.89219e-09)
(1.18732e-07 -4.82559e-06 9.55498e-08)
(4.48761e-07 -1.74472e-05 1.08026e-07)
(-2.70221e-07 -1.74141e-05 1.04705e-08)
(-8.34529e-08 -1.37255e-06 1.55362e-10)
(1.74401e-08 -3.28133e-07 -3.08914e-09)
(1.82002e-08 -2.32462e-06 -7.45185e-10)
(-4.7397e-08 1.6622e-06 -4.56425e-09)
(-3.83386e-07 5.52946e-05 1.67396e-08)
(3.80269e-07 -0.000190597 -6.286e-07)
(-2.52337e-06 -0.000261125 5.04163e-07)
(-1.0886e-06 0.000290585 -1.83432e-06)
(2.9713e-06 0.000187863 -3.08053e-06)
(7.36218e-07 1.74153e-05 -5.36965e-07)
(-8.2595e-08 -2.27663e-06 -1.23982e-08)
(-3.72607e-09 -5.87993e-08 7.71277e-10)
(-2.83637e-11 -1.46816e-09 1.01118e-10)
(3.48716e-12 -7.09034e-11 5.24569e-12)
(3.50125e-13 -5.47221e-13 1.6816e-13)
(-2.17905e-14 -1.01214e-11 -2.14914e-14)
(1.76663e-14 -1.54893e-11 -1.07361e-13)
(6.00543e-14 6.41682e-13 -1.79824e-12)
(-2.94367e-15 -3.11504e-11 3.38088e-12)
(6.277e-16 8.0024e-12 -2.27587e-12)
(-5.36942e-14 1.82415e-11 -1.66473e-12)
(1.45158e-13 4.96892e-11 -1.66751e-12)
(-1.20466e-12 2.80481e-10 1.04581e-11)
(6.30507e-12 6.35667e-10 3.72066e-11)
(1.25945e-12 -1.32559e-09 -7.88353e-10)
(-1.43554e-13 5.11848e-15 -2.91347e-11)
(3.47035e-13 2.24504e-10 -1.43869e-10)
(3.66001e-13 1.51256e-10 -1.80079e-10)
(-4.09449e-13 -1.51761e-10 7.54829e-12)
(-2.45248e-13 -2.33451e-11 3.74353e-12)
(-2.11169e-14 -1.25908e-12 2.37039e-13)
(-2.87864e-15 2.20192e-13 2.49022e-13)
(1.15084e-14 -1.19734e-12 -1.09201e-12)
(3.74712e-13 -2.9182e-11 -6.99921e-12)
(-1.33254e-11 4.66133e-10 -1.31158e-11)
(4.70104e-10 1.02367e-08 -2.27311e-12)
(-2.61467e-09 -4.31167e-07 2.99148e-12)
(1.35394e-09 1.0014e-06 4.52159e-10)
(3.62248e-09 -7.56413e-07 1.01237e-09)
(-1.76597e-09 -2.28227e-07 1.36143e-10)
(-9.96942e-10 -1.58563e-08 -5.78672e-12)
(-3.14508e-11 3.4336e-10 9.91069e-12)
(2.4661e-10 -6.36911e-08 -2.9989e-11)
(-7.49741e-10 -4.95063e-08 6.5533e-11)
(5.52637e-10 6.61041e-08 -3.14863e-10)
(8.6604e-10 1.00198e-06 4.2228e-09)
(-7.26195e-09 -9.76476e-07 3.14584e-10)
(-1.06019e-09 7.91974e-06 -7.58734e-09)
(6.95922e-09 2.00844e-06 -2.24484e-08)
(9.60527e-10 -2.26427e-07 -2.91692e-09)
(-4.91577e-10 -1.01947e-08 1.89707e-10)
(-4.35186e-11 -7.60242e-11 3.55469e-11)
(-2.48767e-12 9.64912e-12 2.42612e-12)
(-1.2295e-13 9.86319e-13 1.11128e-13)
(-7.23169e-15 4.09437e-14 1.41889e-15)
(-2.95777e-15 2.32034e-14 -1.1619e-16)
(-3.8697e-15 1.03164e-13 3.27627e-16)
(4.63306e-15 -2.66175e-14 1.25416e-14)
(5.33127e-15 -4.23646e-14 -1.45729e-14)
(8.25855e-16 -1.2538e-14 3.11488e-14)
(7.98443e-15 -6.45444e-14 -6.0861e-16)
(-3.00819e-15 1.30355e-13 -8.65653e-15)
(-6.4993e-15 -4.62254e-13 1.43111e-13)
(2.41895e-14 3.43746e-12 -1.93006e-13)
(8.26664e-14 -1.7747e-11 -2.90234e-12)
(3.6098e-16 -2.07789e-13 -3.26416e-14)
(7.33001e-16 2.95246e-13 1.80712e-13)
(-6.75222e-16 -1.07027e-12 1.05339e-12)
(-2.40867e-16 -6.12249e-13 1.7193e-13)
(2.02739e-16 -5.31594e-14 8.17237e-15)
(1.81215e-16 -4.68023e-15 2.56402e-16)
(-9.98799e-16 -7.09076e-16 -5.1184e-16)
(8.6971e-17 4.27042e-15 1.13741e-15)
(1.068e-15 -2.89999e-14 3.32253e-15)
(-9.84279e-15 -9.26684e-13 2.09175e-14)
(1.05935e-12 3.30743e-11 1.63506e-15)
(-1.22207e-11 -1.16857e-09 7.99498e-14)
(-5.059e-13 6.52588e-09 1.46494e-12)
(2.0713e-11 -4.53265e-09 7.20237e-12)
(7.5075e-14 -2.46854e-09 1.2355e-12)
(-8.48844e-12 -1.45044e-10 -2.8046e-14)
(-6.46986e-13 6.07799e-12 2.59754e-14)
(-1.55515e-12 -6.70846e-11 3.4343e-14)
(5.81143e-12 -6.06943e-10 -1.3748e-13)
(2.38915e-12 1.79687e-09 8.93863e-13)
(-4.8643e-12 -1.97933e-09 -1.57063e-11)
(-2.44414e-11 -3.55785e-10 1.41706e-12)
(-3.64144e-12 1.6056e-08 -4.02099e-11)
(3.09253e-11 2.27727e-09 -2.22784e-10)
(3.62371e-12 -1.22557e-09 -3.61326e-12)
(-7.26205e-12 -1.08176e-10 8.06695e-12)
(-9.05616e-13 -6.17408e-12 9.19498e-13)
(-5.1539e-14 -3.00089e-13 4.19563e-14)
(-5.55629e-15 -1.37027e-14 -2.35672e-15)
(-4.51e-16 -3.11576e-16 3.42895e-15)
(1.29926e-15 7.1189e-16 -1.12493e-15)
(-1.51995e-16 7.6434e-15 -1.25249e-16)
(7.22958e-15 9.55532e-15 -7.32945e-16)
(1.86458e-15 -1.30777e-14 -4.708e-15)
(-8.32071e-15 -1.16408e-15 6.19982e-15)
(-2.57988e-15 -8.84386e-15 3.32954e-15)
(4.52809e-16 -2.19519e-14 2.14099e-15)
(2.13531e-15 5.48271e-15 3.39636e-15)
(-3.81882e-16 -2.97622e-15 -5.43983e-15)
(1.7985e-17 -5.98566e-14 -6.10474e-15)
(-7.18417e-16 8.86125e-16 1.12488e-16)
(-2.22639e-16 -1.18718e-15 1.08259e-15)
(8.58693e-16 2.09133e-16 9.18136e-15)
(-1.94258e-17 -2.88139e-15 2.57266e-15)
(-7.80433e-16 -3.083e-15 -7.3301e-16)
(-2.37438e-17 -1.50159e-15 -9.31501e-16)
(9.03057e-16 -2.16353e-15 2.83084e-16)
(1.24267e-16 6.53182e-16 -5.28977e-16)
(-1.3024e-16 5.85523e-16 -3.61321e-17)
(3.09864e-16 -1.42254e-16 -9.48098e-16)
(1.90684e-15 2.25332e-14 -1.72371e-15)
(-2.98881e-14 -2.38571e-12 1.56484e-15)
(-1.38287e-13 2.75181e-11 4.66829e-15)
(8.99133e-14 -1.27872e-12 3.42255e-14)
(1.46639e-13 -1.9078e-11 1.36786e-14)
(-6.06264e-14 -1.41464e-12 -5.43347e-16)
(-1.05577e-14 1.51473e-14 -3.89942e-16)
(2.07296e-15 4.12477e-14 3.00568e-16)
(-8.19549e-15 3.51376e-12 -3.86963e-18)
(-5.22727e-15 -1.30405e-11 -5.98306e-16)
(1.0614e-14 -1.86486e-12 1.04947e-14)
(-5.43708e-14 -2.08986e-12 1.53614e-14)
(1.98738e-14 5.31339e-11 -1.20563e-13)
(1.28364e-13 6.11316e-12 -2.45066e-12)
(-7.45575e-15 -1.64368e-11 -2.08103e-13)
(-6.71427e-14 -2.05246e-12 8.81972e-14)
(-1.23823e-14 -1.12026e-13 8.96319e-15)
(-3.46094e-15 -1.13581e-14 6.35878e-15)
(-1.94385e-15 4.44834e-15 -1.53599e-15)
(-1.53109e-15 1.78863e-15 -3.32898e-15)
(1.34759e-16 2.32651e-15 3.23206e-15)
(-3.2644e-16 -2.91209e-15 -3.03726e-15)
(-4.84305e-15 4.22516e-15 -1.45687e-15)
(9.28435e-16 -1.90775e-14 5.24844e-15)
(3.65652e-15 2.03386e-16 -4.25041e-15)
(-1.5506e-16 2.07541e-15 6.79554e-15)
(2.99794e-15 7.25397e-15 4.59795e-16)
(1.03536e-15 -2.9575e-16 -4.98205e-15)
(-2.29045e-15 1.8974e-15 -5.31766e-15)
(2.46425e-16 -2.46066e-16 -1.95349e-15)
(1.14802e-17 -3.09552e-15 -4.59397e-15)
(5.0019e-16 2.97106e-15 -3.17153e-15)
(-1.66536e-15 -1.53506e-15 1.21816e-15)
(-1.87843e-15 -4.3433e-15 -3.98663e-16)
(9.8151e-16 -9.81906e-16 4.48676e-15)
(6.53435e-16 1.84325e-15 2.02666e-15)
(-1.39465e-16 -3.48489e-15 2.00671e-15)
(1.43133e-15 -1.74926e-17 -2.67061e-15)
(8.0228e-16 1.30922e-15 -1.09762e-16)
(-1.32857e-16 -1.16517e-15 -5.96514e-16)
(-8.39905e-16 -5.04127e-16 -4.66404e-16)
(-1.45699e-15 -4.49507e-15 -7.60884e-16)
(-1.1619e-15 5.97719e-14 -8.49762e-16)
(1.68234e-15 2.7713e-13 -1.14203e-15)
(9.9047e-16 -1.23385e-13 2.97878e-15)
(5.6819e-16 -2.13418e-14 -5.74417e-17)
(9.5894e-16 2.91776e-16 1.23778e-15)
(-9.689e-16 2.33622e-16 -1.35082e-15)
(-1.67598e-16 -3.19733e-15 -1.32995e-15)
(-1.44021e-16 1.79407e-14 -2.43406e-16)
(2.04366e-16 4.72105e-15 1.43706e-15)
(2.34056e-16 -9.01292e-15 1.67468e-15)
(1.51417e-15 1.11724e-13 -3.40046e-15)
(2.488e-15 -4.82474e-14 -1.57292e-14)
(-4.03344e-15 -1.49853e-13 -4.05149e-15)
(-2.72334e-15 -2.76796e-14 -3.02277e-16)
(2.68228e-15 -3.19839e-15 -8.58315e-16)
(5.9286e-16 -7.44278e-15 -2.79296e-15)
(5.16285e-16 5.16804e-15 3.68853e-15)
(-1.37949e-15 9.16638e-16 -3.05736e-15)
(-8.85247e-16 3.57547e-15 -6.93336e-16)
(7.9728e-16 4.95561e-16 7.00504e-16)
(5.54822e-16 2.44824e-15 4.77742e-16)
(-1.06497e-17 1.0731e-14 3.5381e-15)
(8.0999e-16 4.70724e-15 3.20885e-15)
(6.2624e-16 -2.45095e-15 -1.64056e-14)
(-9.74307e-16 7.0535e-15 3.73962e-15)
(-3.7754e-16 -4.5724e-15 -3.73318e-15)
(-1.5938e-16 5.79813e-16 -4.85714e-15)
(-5.01697e-16 -1.51543e-15 4.22823e-15)
(1.63456e-15 1.01269e-16 -8.07904e-15)
(5.47075e-16 1.59553e-15 -1.66916e-15)
(-2.83889e-15 -1.89894e-15 1.52629e-15)
(4.73011e-16 2.20874e-15 -5.05485e-15)
(2.38573e-15 2.17903e-15 5.58048e-15)
(-1.44903e-15 2.19596e-15 9.59521e-16)
(3.976e-18 4.79426e-15 1.43191e-15)
(2.58386e-15 2.37444e-15 1.67255e-15)
(-8.48341e-16 -7.04221e-16 2.84976e-16)
(-6.25829e-16 -1.44784e-15 -3.33879e-16)
(3.89355e-16 9.07468e-16 2.95642e-17)
(-2.09345e-16 1.47686e-15 -2.27116e-16)
(-6.4849e-17 1.37968e-15 -7.22859e-16)
(-7.874e-17 3.35654e-15 -7.41405e-17)
(1.81782e-16 6.31491e-17 -1.62211e-16)
(-2.70465e-17 4.39663e-16 -5.59245e-17)
(-7.34785e-17 -2.08813e-15 -2.57465e-15)
(4.99923e-16 1.05616e-16 -2.14402e-15)
(5.56818e-16 -5.2457e-16 -6.04125e-16)
(-1.46838e-15 8.18127e-16 -2.13332e-16)
(-2.89663e-15 -2.67951e-16 1.0034e-15)
(-2.11363e-15 1.11617e-16 2.77339e-16)
(5.40325e-16 -2.83675e-15 -2.67348e-15)
(-1.7265e-16 -4.11516e-15 7.11847e-16)
(3.32327e-15 -6.48853e-15 1.52042e-15)
(5.56092e-15 3.85787e-15 5.48407e-16)
(-2.99102e-15 -2.4126e-15 3.62657e-15)
(6.4737e-16 -7.61082e-16 2.29846e-15)
(2.32611e-15 7.34363e-17 -4.95156e-16)
(-2.40897e-15 8.83504e-16 8.67165e-16)
(1.27e-17 9.50432e-16 -7.30924e-15)
(-1.05332e-15 5.69547e-16 3.58702e-16)
(1.3748e-16 -1.37987e-16 -4.31602e-16)
(2.24883e-15 -7.29902e-15 -2.12471e-15)
(-3.18397e-15 -1.62606e-15 -3.51617e-15)
(1.03397e-15 -1.54647e-15 -6.43675e-15)
(2.26187e-15 -1.76072e-15 2.01376e-15)
(-2.32248e-15 5.27638e-16 9.84165e-16)
(-8.56805e-16 -4.87642e-16 2.1432e-15)
(-1.66554e-15 -5.59452e-16 5.79235e-15)
(1.13069e-15 1.45762e-15 1.57537e-16)
(-6.99896e-16 1.76955e-15 -4.44216e-15)
(-1.17711e-15 2.1334e-15 1.78234e-15)
(3.14234e-16 3.93993e-15 -3.23356e-15)
(8.28096e-16 -1.15778e-15 1.08232e-15)
(2.43443e-15 -1.47643e-15 -2.15213e-15)
(-4.7709e-17 3.22538e-15 -2.25403e-15)
(-1.97393e-15 -4.80883e-16 -1.30533e-15)
(-1.31035e-15 -8.17273e-16 1.97249e-15)
(8.8138e-16 1.06725e-15 -1.62958e-15)
(7.80123e-16 -9.38752e-16 3.44475e-17)
(-1.30434e-15 -1.6528e-15 -1.26733e-15)
(-1.52584e-16 -8.64039e-16 -1.03315e-15)
(1.07847e-15 -1.33935e-15 -1.14725e-15)
(-6.68549e-16 -1.25436e-17 3.76658e-16)
(-6.5551e-16 -2.66949e-16 -3.52118e-15)
(8.6651e-16 2.97973e-16 -3.58522e-15)
(-1.87081e-16 -3.2128e-16 5.00124e-16)
(1.82957e-16 -7.17263e-16 -1.24536e-15)
(1.46807e-16 -1.20955e-15 -1.38098e-15)
(1.04118e-16 1.90268e-15 -8.63197e-16)
(-1.0572e-15 2.97869e-15 -1.28855e-15)
(-9.10429e-16 6.76824e-15 1.64773e-15)
(5.8211e-16 2.53128e-15 1.50532e-15)
(-3.2905e-17 5.81275e-15 -4.24075e-15)
(-1.14781e-15 -1.97513e-15 2.09396e-15)
(5.11212e-16 -3.6736e-15 -4.89028e-17)
(2.07272e-15 3.33407e-15 3.39726e-15)
(1.31112e-15 -4.15394e-15 -3.49214e-15)
(-7.4857e-16 3.73882e-15 -1.56718e-15)
(-1.16607e-15 -8.70728e-16 -4.60647e-15)
(3.39015e-16 -1.80094e-15 8.86702e-16)
(-4.10369e-15 2.46539e-15 -4.98733e-15)
(-1.13441e-15 -3.75905e-15 -7.23944e-16)
(4.66204e-15 -9.39869e-15 1.30026e-15)
(5.03445e-16 1.71871e-15 8.8827e-16)
(-7.089e-17 -4.27026e-15 -2.09947e-15)
(5.85097e-16 1.4826e-15 5.34532e-16)
(-7.36566e-16 -2.13931e-15 2.1006e-15)
(-2.8971e-17 4.29331e-15 5.30578e-15)
(2.225e-17 -2.17712e-16 -5.44735e-15)
(1.12225e-15 -3.71484e-16 2.14495e-15)
(-1.57987e-15 1.78483e-15 -7.1386e-15)
(-1.68131e-15 8.65095e-16 4.21522e-16)