/*--------------------------------*- C++ -*----------------------------------*\
| =========                 |                                                 |
| \\      /  F ield         | OpenFOAM: The Open Source CFD Toolbox           |
|  \\    /   O peration     | Version:  5.0                                   |
|   \\  /    A nd           | Web:      www.OpenFOAM.org                      |
|    \\/     M anipulation  |                                                 |
\*---------------------------------------------------------------------------*/
FoamFile
{
    version     2.0;
    format      ascii;
    class       volVectorField;
    location    "50.4676134421789371";
    object      MD2uty;
}
// * * * * * * * * * * * * * * * * * * * * * * * * * * * * * * * * * * * * * //

dimensions      [0 -1 -1 1 0 0 0];

internalField   nonuniform List<vector> 
60000
(
(2.49259 6.51547 3.73678)
(2.21075 15.0179 0.49941)
(0.75721 20.1641 -1.65473)
(-1.20237 16.6995 -3.68656)
(-2.09869 6.97255 -4.30322)
(-1.5647 -0.144314 -2.28904)
(-1.01009 -2.55042 0.878272)
(-1.16072 -5.24149 3.5726)
(-0.989445 -8.66486 4.74358)
(0.084185 -9.1587 4.66737)
(1.19889 -5.45562 3.60553)
(1.20613 -0.111891 0.413902)
(0.17409 0.635522 -4.43209)
(-0.479259 -3.1189 -8.12832)
(-0.05509 -4.12147 -9.30778)
(0.495632 0.616139 -8.91554)
(-0.033735 5.39914 -8.03699)
(-1.59722 2.64368 -6.23117)
(-3.36569 -10.6298 -2.8445)
(-4.64497 -32.5922 1.4481)
(-4.6576 -58.1801 3.35479)
(-2.97235 -77.8103 0.81525)
(-1.26605 -84.2107 -1.4691)
(-1.74955 -85.5916 0.305025)
(-2.95465 -95.2516 4.41188)
(-1.77965 -107.882 8.50785)
(2.47205 -108.658 11.0337)
(7.1701 -84.8316 9.3249)
(7.52078 -44.2807 0.31665)
(2.72445 -20.0604 -12.3868)
(-1.57572 -26.0463 -18.6884)
(-1.84057 -38.2315 -17.6209)
(0.6107 -40.2268 -13.7615)
(4.03875 -25.8392 -7.56537)
(5.08514 2.17767 2.45382)
(1.11712 16.6153 13.6504)
(-2.72244 0.27195 14.978)
(-1.92971 -12.4651 11.591)
(0.417735 -9.72419 9.9057)
(1.87395 -2.11964 7.44203)
(-1.02076 21.7134 -2.33196)
(-1.06198 -1.92716 -1.22503)
(-0.666005 -19.9077 -0.10146)
(-0.004935 -24.3433 1.14442)
(0.615623 -17.3422 2.18959)
(0.765478 -5.7232 2.14699)
(0.600222 4.80864 0.978825)
(0.663768 15.1147 -0.570472)
(0.69659 29.6296 -1.63881)
(0.231155 42.6868 -1.88446)
(-0.409775 43.5826 -1.52503)
(-0.716239 31.5298 -0.64914)
(-0.495821 17.5807 0.71508)
(0.0486365 12.5346 2.19132)
(0.437986 16.6535 3.17841)
(0.414338 22.3598 3.4362)
(0.241985 25.2396 3.26075)
(0.14438 28.8782 2.88825)
(0.15686 38.0375 2.17106)
(0.32539 57.5673 0.743453)
(0.57486 86.4832 -0.577927)
(0.652275 120.639 -0.66234)
(0.611705 145.687 -0.0249)
(0.81623 163.555 -0.0506925)
(1.01045 190.499 -0.867405)
(0.610595 218.006 -1.78531)
(-0.401005 223.244 -2.46007)
(-1.41344 187.666 -2.57901)
(-1.76073 120.453 -1.67565)
(-1.16593 64.6413 0.619882)
(-0.09569 51.3111 3.08812)
(0.599655 65.1371 3.78382)
(0.57732 80.501 3.04348)
(-0.175885 77.9805 2.11199)
(-1.32586 46.2659 0.990217)
(-1.42554 6.47844 -2.37187)
(0.0684215 -1.44493 -5.68665)
(1.1206 16.8993 -5.25903)
(0.583621 35.5025 -4.09225)
(-0.42856 37.251 -3.25479)
(-1.50973 2.94955 -6.85168)
(-2.08885 4.36 -3.97292)
(-1.59369 4.82557 -1.0035)
(-1.04072 4.61458 1.38839)
(-0.304957 1.47224 3.36033)
(0.662476 -3.03938 4.41908)
(1.14547 -5.04998 3.21891)
(1.41658 -5.17486 -0.225165)
(1.9089 -5.96877 -4.02212)
(1.62422 -4.46458 -6.22753)
(0.122255 -0.799599 -6.48469)
(-1.49264 1.03741 -4.78484)
(-1.87369 -0.643574 -1.04649)
(-0.63742 -3.62947 3.6136)
(0.988905 -4.42665 7.23516)
(1.46114 -2.54523 8.64802)
(0.664225 -0.784446 7.96727)
(-0.351485 -2.91724 6.22983)
(-0.533505 -7.69779 4.18253)
(0.23912 -10.9806 0.451433)
(1.82957 -11.5001 -5.12544)
(3.25064 -7.84252 -7.87745)
(3.32272 -0.787437 -5.49999)
(2.97915 2.50856 -2.14301)
(2.70325 0.946456 -1.00508)
(1.62215 -2.39751 -1.5591)
(-0.6116 -3.87287 -3.0501)
(-3.39655 -3.34138 -4.32982)
(-5.22886 -4.33572 -3.1833)
(-4.57873 -7.79096 1.95011)
(-1.6741 -11.8451 8.87532)
(1.15981 -13.7289 12.8398)
(2.04579 -12.4388 12.0158)
(0.660215 -9.24043 8.27482)
(-2.21941 -4.62302 3.6037)
(-3.93708 -1.60484 -2.99727)
(-1.85058 -4.30741 -10.9133)
(1.87203 -8.97278 -13.2079)
(2.66904 -7.29551 -10.9726)
(0.575955 -1.11466 -8.88827)
(-0.296406 -18.8955 -1.54832)
(-0.724549 -10.3279 -0.371348)
(-0.538376 -3.37215 0.78199)
(-0.309995 1.33489 1.42481)
(-0.230539 4.52374 1.59326)
(-0.0263135 3.52289 1.68227)
(0.280872 -1.03457 1.38653)
(0.47257 -5.5544 0.29129)
(0.658127 -11.8078 -1.16674)
(0.722543 -19.8643 -2.14315)
(0.21195 -23.4371 -2.31879)
(-0.616441 -19.9835 -1.61935)
(-0.926985 -12.2747 -0.050355)
(-0.345604 -6.77326 1.90742)
(0.514196 -8.00945 3.35097)
(0.753795 -13.7931 3.56563)
(0.152379 -18.1958 2.63773)
(-0.65475 -18.6732 1.32839)
(-0.763572 -17.2171 0.25395)
(-0.133489 -16.8947 -1.44235)
(0.830707 -19.6682 -4.22667)
(1.7006 -29.8884 -5.73157)
(1.60385 -41.7518 -4.07958)
(0.805025 -52.4492 -1.17248)
(0.23108 -64.7081 0.431782)
(-0.08738 -75.473 0.584422)
(-0.495275 -78.9618 -0.05532)
(-1.26451 -70.902 -0.915757)
(-1.94816 -52.6534 -0.978105)
(-1.73557 -32.2398 0.610614)
(-0.662424 -19.9717 2.98361)
(0.468463 -20.8389 4.43166)
(0.977128 -28.9827 4.17032)
(0.698953 -35.8514 2.56712)
(-0.293623 -32.862 0.402106)
(-1.12598 -17.6252 -1.98973)
(-0.6389 -2.33793 -3.92083)
(0.674941 -3.65444 -4.48655)
(1.33397 -16.332 -3.61205)
(0.727694 -22.6122 -2.52249)
(0.0326564 -5.11202 -0.256878)
(-0.122231 -2.49641 -0.0179457)
(-0.119299 0.100759 0.236277)
(-0.0442208 1.36923 0.403055)
(-0.015527 2.39917 0.407909)
(-0.0209005 3.13743 0.35798)
(0.002422 2.59331 0.309129)
(0.0514483 0.947096 0.149569)
(0.0952978 -0.979844 -0.0775663)
(0.138431 -3.85128 -0.248575)
(0.0967552 -6.11393 -0.373219)
(-0.0676189 -5.22417 -0.378047)
(-0.177874 -1.66901 -0.115121)
(-0.0884431 1.43817 0.316261)
(0.0848059 0.910616 0.668533)
(0.151145 -2.42251 0.730392)
(0.0545896 -4.71002 0.473662)
(-0.187085 -3.19031 0.160454)
(-0.268071 -0.146932 0.025932)
(-0.055082 1.2116 -0.273448)
(0.168562 0.762588 -1.08308)
(0.412355 -3.99698 -1.67292)
(0.437155 -11.1352 -1.24622)
(0.0871185 -15.547 -0.372352)
(-0.167 -17.3799 0.212792)
(-0.136184 -17.4959 0.352096)
(-0.00288 -16.6712 0.264166)
(-0.0449135 -13.6238 0.0251287)
(-0.318681 -6.82962 -0.188476)
(-0.435332 0.87585 0.0475704)
(-0.230753 5.19432 0.574454)
(0.00777 5.08755 0.885085)
(0.117861 1.80684 0.874454)
(0.129349 -1.8789 0.595562)
(0.055996 -3.42647 0.124583)
(-0.0833985 0.0211222 -0.47004)
(-0.07898 4.79368 -0.822028)
(0.0957515 4.88665 -0.791943)
(0.232965 0.032123 -0.627601)
(0.21204 -4.76164 -0.419991)
(0.00901493 -0.615815 -0.0421716)
(-0.00562745 -0.358879 -0.0280831)
(-0.00238082 0.171099 0.00631306)
(0.0069706 0.443494 0.00804457)
(0.0122106 0.51109 0.0199399)
(0.0022282 0.617398 0.0212401)
(-0.0185743 0.723032 0.0219531)
(-0.0193659 0.601704 -0.00175326)
(-0.00276989 0.312823 -0.0192275)
(0.0135273 -0.0867411 0.0117357)
(0.0180979 -0.64339 0.0066788)
(-0.00707484 -0.736433 -0.0671535)
(-0.00599845 -0.21119 -0.0950176)
(0.014411 0.406894 -0.0349448)
(-0.0199841 0.347594 -0.0340162)
(-0.026233 -0.37553 -0.0292906)
(0.0474311 -0.923835 -0.00259162)
(-0.0192452 -0.456197 -0.0193937)
(-0.15512 0.608135 0.000479093)
(-0.0052821 0.492886 0.00634215)
(0.118625 0.488714 -0.203078)
(0.0507319 0.250432 -0.344847)
(-0.00650705 -1.84955 -0.0843754)
(-0.0565812 -3.29854 0.0477771)
(-0.0197511 -2.71302 0.0218356)
(0.0239184 -1.74888 0.0335057)
(0.0340752 -1.46924 0.0738422)
(0.0842345 -1.69238 0.0903157)
(0.0563258 -1.07939 0.029887)
(-0.0680432 0.786188 -0.00441495)
(-0.0758598 2.02508 0.0814467)
(0.00847061 2.07829 0.097222)
(0.0219876 1.77685 0.0521438)
(-0.0264423 1.48824 0.0461861)
(-0.0450855 1.09168 0.025123)
(-0.00192275 0.899227 -0.0598497)
(0.0323665 1.40592 -0.0784086)
(0.0212612 1.48396 0.0204709)
(0.0018957 0.881269 0.026734)
(0.0100643 -0.0945884 -0.0184191)
(-0.00862231 -0.0269822 0.0154334)
(-0.0041224 -0.0239226 -0.00587717)
(0.00133395 -0.00683856 -0.0104106)
(0.00672412 -0.0144161 -0.0357556)
(0.0103701 -0.048091 -0.041215)
(0.0117691 -0.0836949 -0.0329476)
(0.0020047 -0.0408794 -0.0383332)
(-0.00907885 0.0573206 -0.0468469)
(-0.00844071 0.086675 -0.0441596)
(-0.00683029 0.0687191 -0.0010353)
(-0.0025857 -0.0173283 0.0146202)
(-0.00238655 -0.0730379 -0.00820735)
(-0.00652643 0.0190655 -0.0229295)
(-0.00665691 -0.0512303 -0.048507)
(-0.0337857 -0.154271 -0.0716118)
(-0.0408277 -0.101544 -0.0739214)
(0.0419844 -0.157743 -0.0130823)
(0.0489909 -0.288738 -0.00750212)
(-0.122749 0.253835 -0.00683093)
(-0.0800129 0.25043 0.0211377)
(0.133626 -0.511601 -0.06431)
(0.0629764 0.0116199 -0.050229)
(-0.104047 0.00247336 0.219507)
(-0.0408453 -0.201221 0.161258)
(0.0741407 0.141449 0.00403283)
(0.0530082 0.143344 -0.00664208)
(0.0026334 0.128488 0.00053865)
(0.00618769 -0.026902 0.0247328)
(0.0525244 -0.415769 0.0366271)
(0.0402465 -0.339875 0.0173625)
(-0.0330253 0.157702 -0.00892935)
(-0.0333781 0.203157 -0.00163185)
(0.030176 -0.0176198 -0.042935)
(0.032145 -0.0124107 -0.0832755)
(-0.0309757 0.261848 -0.0549435)
(-0.0398591 0.320146 -0.0527523)
(0.00621899 0.170515 -0.0311851)
(0.0166694 0.0765378 0.0717244)
(-0.0042549 0.0685345 0.118479)
(-0.014719 0.0586057 0.0645229)
(-0.00422802 0.00477142 0.0253868)
(-0.00210443 0.017889 0.010599)
(-0.00103009 0.025266 0.000205552)
(-0.00053864 0.00808326 -0.0192645)
(-0.00025216 -0.0164977 -0.0253334)
(0.00255493 -0.0536882 -0.017528)
(0.00504607 -0.0850865 -0.0234219)
(0.00286423 -0.0637756 -0.0277419)
(-9.922e-05 -0.0257465 -0.0274231)
(-0.00335572 -0.00830686 -0.016277)
(-0.00564696 0.0050542 0.00140972)
(-0.000914156 -0.01473 -0.0124758)
(-0.00196044 0.0190125 -0.0100276)
(-0.015062 0.0262921 -0.0178637)
(-0.0277411 0.00965097 -0.0426824)
(-0.0253522 0.150651 -0.0149564)
(0.0138051 0.192489 0.0280826)
(0.0488464 -0.0999508 0.00863388)
(-0.0600003 0.0197358 -0.00433604)
(-0.137332 0.507807 0.0318871)
(0.0734489 -0.0953437 -0.0443647)
(0.143357 -0.118125 -0.101095)
(-0.0352567 0.337896 0.0727498)
(-0.0328308 0.511346 0.0951107)
(0.0334368 0.310305 0.0145183)
(0.0185312 0.0802247 0.00229485)
(0.00624364 0.0313282 -0.00155012)
(-0.00707251 0.0834702 -0.00289797)
(-0.000444584 0.00461874 0.00800975)
(0.0254601 -0.21714 0.0096509)
(0.0188791 -0.2063 -0.0028515)
(-0.0192078 0.012386 -0.0127933)
(-0.0182364 -0.00168904 0.00457077)
(0.0185209 -0.192455 -0.023759)
(0.0141919 -0.197075 -0.043232)
(-0.0146666 0.00826974 -0.0379393)
(-0.00941455 0.0279264 -0.0383909)
(0.0031109 -0.0435714 0.0101334)
(-0.00074111 -0.0676982 0.0592356)
(-0.00480914 -0.023842 0.0528215)
(-0.00066498 -0.00584988 0.0162742)
(-0.00019991 0.00088766 0.0113405)
(-0.000397601 0.00505621 0.0065914)
(-0.000942028 0.00484029 -0.00566523)
(-0.000981155 0.00524667 -0.0103167)
(-0.00110273 0.00469903 -0.00470816)
(-0.00034479 -0.00802224 -0.00659155)
(0.00164502 -0.0217348 -0.00751418)
(0.00187657 -0.0224538 -0.0041924)
(-0.000981159 -0.0188713 -0.0125453)
(-0.0035629 -0.00913161 -0.00401453)
(0.000274766 -0.00578 -0.00397169)
(0.00127015 -0.00431533 -0.0166857)
(-0.00767175 0.0158874 -0.0174284)
(-0.00934083 0.052556 -0.0226542)
(-0.0055717 0.139972 -0.00489805)
(-0.00561485 0.192552 0.0221873)
(0.0141766 0.0522121 0.0100215)
(-0.00673095 -0.0547696 -0.00771342)
(-0.097264 0.368201 0.0270159)
(0.0136773 0.43755 -0.0315971)
(0.141979 -0.0087078 -0.146511)
(0.0157209 0.134089 -0.0423904)
(-0.04724 0.281256 0.0416703)
(-0.00855337 0.0986892 0.0114441)
(0.000341895 0.0250484 -0.000949512)
(0.00291294 -0.00304722 0.00173782)
(0.0021793 -0.00234786 -0.00038903)
(-0.00258364 0.0352533 -0.000149156)
(-0.000742478 0.000566061 0.00143168)
(0.00786177 -0.094538 0.000503439)
(0.00640305 -0.0910787 -0.008758)
(-0.00609678 0.0109342 -0.00517792)
(-0.0058329 0.00322204 0.0054981)
(0.00480407 -0.0884402 -0.00706113)
(0.00288875 -0.0692151 -0.010373)
(-0.00260991 -0.0104965 -0.0184103)
(-0.00120228 -0.0218004 -0.00911172)
(-0.00064196 -0.0280734 0.0117053)
(-0.00113697 -0.0197418 0.0203053)
(-6.9565e-06 -0.00412718 0.00666276)
(0.000124939 -0.00298598 0.00716532)
(-0.000216119 -0.00293084 0.0058593)
(-0.000454376 -0.00170048 -0.000702219)
(-0.000207918 0.000554744 -0.00467266)
(-1.82609e-05 0.00246167 -0.000865868)
(-0.000276965 0.00554254 -0.00132233)
(-0.000220855 0.00388551 -0.00156582)
(0.000332922 -0.00222322 0.00204085)
(-0.000637459 -0.00454993 -0.00284594)
(-0.00294993 0.00138353 -0.00529293)
(3.425e-05 0.00479403 0.000855233)
(0.00252612 -0.00185187 -0.00635414)
(-0.0031729 0.00656653 -0.012117)
(-0.00203701 0.0283469 -0.00954606)
(0.00374949 0.0434111 -0.00310224)
(-0.00370928 0.0651312 0.00886091)
(-0.00259419 0.0671213 0.00879061)
(0.00479094 -0.00933261 -0.00556689)
(-0.0319291 0.103415 0.00972418)
(-0.0042246 0.397585 -0.00856906)
(0.0759671 0.0291722 -0.0809471)
(0.0239807 -0.104157 -0.0370511)
(-0.0392128 0.0293639 0.0180841)
(-0.0192214 0.0161619 0.00937138)
(-0.00222134 0.00847067 0.00108767)
(0.00049256 0.00641872 -0.000182576)
(0.000490561 -0.00355992 0.000226604)
(0.000425954 -0.00312849 -9.9435e-05)
(-0.000703881 0.00830554 -3.31549e-05)
(-0.000372064 0.000381439 0.000662535)
(0.00160564 -0.027383 -0.000867447)
(0.0014894 -0.0286144 -0.00357977)
(-0.00106595 0.00100746 -0.000402863)
(-0.00095395 -0.0016031 0.00028194)
(0.000856785 -0.0212075 -0.000899512)
(0.000430864 -0.0142214 -0.0032317)
(-0.000352965 -0.00869481 -0.00480836)
(-0.000293279 -0.0089049 4.7535e-05)
(-0.000244659 -0.00624115 0.00412871)
(6.6328e-05 -0.0012662 0.00162699)
(6.0242e-05 -0.00165811 0.00299482)
(-0.000100662 -0.00170807 0.0028491)
(-0.00013643 -0.000845178 8.89214e-05)
(-3.90083e-05 4.19065e-05 -0.00175273)
(9.91906e-06 -2.19302e-05 -0.000312296)
(-2.06892e-06 0.000117292 0.000276845)
(-6.89051e-05 0.00110491 -0.000453295)
(-3.53162e-05 0.000980739 0.000503047)
(-0.000130852 -0.000294537 -0.000101756)
(-0.00133122 0.00351783 -0.00210935)
(-0.00049503 0.0101574 0.000751306)
(0.00157518 0.00230189 8.52292e-05)
(-0.00072058 0.00229969 -0.00387558)
(-0.00104831 0.0150552 -0.00237741)
(0.00249658 0.00803638 -0.00137824)
(1.1635e-05 0.00233656 0.00135064)
(-0.00237417 0.0252239 0.00419086)
(0.00098845 0.0100759 -0.000937976)
(-0.00408873 0.00542247 -0.000348256)
(-0.00270182 0.137964 0.000903679)
(0.0255801 0.0188593 -0.0240859)
(0.0149105 -0.14006 -0.0154219)
(-0.0185173 -0.0548121 0.00779857)
(-0.0125782 -0.00528343 0.00497932)
(-0.00178538 0.00303098 0.000633536)
(0.000208935 0.000862896 -0.000156856)
(9.3805e-06 0.00116959 -0.000118345)
(1.86287e-05 -0.000945392 6.53393e-05)
(0.000115716 -0.000548535 -8.92603e-05)
(-5.02104e-05 0.00196983 2.12044e-05)
(-0.000221636 0.000955067 0.000160911)
(8.96942e-05 -0.00465917 -0.000297173)
(0.000307453 -0.00508633 -0.00045454)
(-5.52063e-05 -0.000197821 0.00012077)
(5.15e-08 -0.00121623 -0.000113874)
(0.000148126 -0.0036866 -0.000260356)
(1.55285e-05 -0.00289461 -0.00103466)
(-7.5423e-05 -0.0022328 -0.000352586)
(-5.59775e-05 -0.00175329 0.000350919)
(1.12446e-05 -0.00024563 0.000240616)
(1.18438e-05 -0.000504223 0.000710782)
(-7.68056e-06 -0.000462646 0.000724465)
(-1.28808e-05 -0.000136239 6.4722e-05)
(-2.23126e-06 3.48062e-05 -0.000248315)
(-7.4564e-07 6.65991e-06 -5.84872e-05)
(3.7371e-08 -2.05084e-06 7.41885e-05)
(-2.50721e-06 1.41298e-05 -1.56349e-05)
(-8.307e-06 0.00025129 2.75452e-06)
(-2.12498e-06 0.000136644 -1.30911e-05)
(-0.000283945 0.000732026 -0.000393938)
(-0.000240501 0.00465214 7.97925e-05)
(0.000494234 0.00238871 0.000674169)
(3.05465e-05 -7.57936e-05 -0.000404393)
(-0.000584155 0.00523525 -0.000515123)
(0.000430928 0.00267083 -0.000273088)
(0.000564794 -0.00395245 -0.000168735)
(-0.00051852 0.00325456 0.000872903)
(-0.000183411 0.00445101 0.000298396)
(-0.000142815 -0.000628319 -0.000688932)
(-0.000739299 0.0194245 0.000133387)
(0.00581236 0.00853836 -0.00459404)
(0.00494638 -0.0701885 -0.00399763)
(-0.00481686 -0.0418178 0.00253472)
(-0.00422696 -0.00546354 0.00136486)
(-0.000600032 0.000895783 9.60006e-05)
(1.7292e-05 0.000365695 -8.0461e-05)
(5.01999e-05 1.38325e-05 -1.06365e-05)
(2.37406e-06 0.000348023 -5.46903e-07)
(1.48946e-06 -5.40052e-05 1.11015e-06)
(2.22204e-06 -7.82441e-05 -3.39699e-06)
(-2.10003e-06 0.000131905 4.15433e-06)
(-3.41024e-06 0.000738456 7.14633e-06)
(1.15327e-06 -0.000200013 -9.42675e-06)
(2.12085e-06 -0.000395054 2.34024e-05)
(-2.50767e-07 4.28625e-06 1.48621e-06)
(5.12587e-06 -0.000395359 6.4085e-05)
(2.97445e-06 -0.000539457 -6.07768e-05)
(-6.42876e-06 -0.000451437 -0.000121181)
(-2.15409e-06 -0.00026422 -2.13636e-06)
(2.14435e-07 -3.38451e-06 5.33476e-06)
(3.1416e-07 -3.32939e-05 0.000285087)
(-1.78111e-07 -4.28792e-05 0.000325513)
(-3.7065e-07 -7.67388e-06 1.37727e-05)
(-5.71096e-08 6.15254e-08 -1.40293e-05)
(-5.0058e-09 -2.38495e-07 -3.21044e-06)
(-5.18565e-08 2.55007e-06 -2.04196e-07)
(2.59278e-08 -3.80753e-07 -1.69657e-06)
(-1.45187e-06 1.09389e-05 2.4304e-06)
(-3.33288e-07 2.71747e-05 -2.60572e-06)
(-8.84655e-05 1.39927e-05 -0.000100003)
(-2.56128e-05 0.000938025 -1.33014e-05)
(0.000272338 0.000779698 7.97749e-05)
(5.34047e-05 -0.000556845 2.02722e-05)
(-0.000274443 0.000745768 -0.00013842)
(-3.88323e-05 0.00124664 -9.4042e-06)
(0.000128918 -0.000714935 -1.89075e-05)
(-5.16847e-05 -0.000585971 0.00014526)
(-5.20266e-05 0.000981461 0.000193704)
(-1.68615e-05 -0.000128109 -7.08495e-05)
(-0.000161993 0.00143688 -1.14748e-05)
(0.000811435 0.00226614 -0.000800632)
(0.000873474 -0.01749 -0.000482144)
(-0.000567641 -0.0136095 0.000555721)
(-0.000661173 -0.00154312 0.000177905)
(-0.000163762 8.91609e-05 1.83002e-05)
(-3.5135e-05 0.000168241 -2.36179e-06)
(-1.46232e-07 1.09038e-05 -2.35747e-07)
(1.25415e-08 3.07656e-07 -1.97204e-08)
(-5.99074e-09 2.97816e-06 -1.12402e-08)
(-1.12835e-08 -4.67041e-06 2.74744e-08)
(8.86123e-09 -4.44945e-06 -2.49074e-08)
(1.78024e-08 2.34885e-06 -4.82773e-08)
(-5.1276e-09 6.95013e-06 7.61462e-08)
(-1.1483e-08 -1.50597e-06 -2.34538e-07)
(-8.19658e-09 -1.39416e-07 6.93365e-07)
(2.31129e-07 -6.70771e-07 -1.81041e-07)
(4.75967e-08 -1.71918e-05 -1.02488e-06)
(-2.08181e-07 -1.05927e-05 -7.76754e-06)
(3.23694e-08 4.21814e-06 -7.52974e-06)
(-3.09162e-09 -2.11778e-07 2.42074e-06)
(-7.02723e-09 -7.1978e-07 5.18361e-06)
(4.62339e-09 -1.16472e-06 5.67989e-06)
(6.75144e-09 -1.79267e-07 2.23349e-07)
(-5.5426e-10 -4.08493e-08 -6.14717e-08)
(-3.91286e-10 -6.62957e-09 -4.62812e-09)
(-3.63518e-10 -2.58237e-08 -9.03067e-10)
(1.21243e-09 1.50237e-07 -3.42298e-09)
(8.47824e-08 -1.03983e-07 1.78426e-07)
(-1.30208e-06 4.56892e-06 3.18804e-07)
(-3.3228e-06 5.31434e-07 -8.60837e-08)
(-9.84519e-06 0.000271226 4.26319e-06)
(2.34127e-05 7.84734e-05 1.27336e-05)
(1.69641e-05 -0.000541777 3.67826e-06)
(-2.04947e-05 -8.11833e-05 -6.58232e-07)
(-2.87471e-06 0.000278608 -3.11138e-07)
(4.60907e-06 3.51623e-05 1.26543e-06)
(-6.5489e-06 -0.000109865 7.17091e-07)
(-4.5788e-05 0.000191335 7.5184e-07)
(-5.43325e-06 3.33071e-05 -1.90069e-06)
(-8.2479e-06 0.000239046 -9.62685e-07)
(7.86973e-05 0.000521364 -0.000200521)
(0.0001244 -0.00218329 -2.46077e-05)
(1.03375e-05 -0.00207622 4.76757e-05)
(-7.15344e-05 -0.000472078 0.000119054)
(-7.99429e-05 -0.000105415 7.03173e-06)
(-3.11901e-06 -4.29062e-07 1.02513e-08)
(-5.31928e-08 2.2604e-08 -1.44016e-08)
(8.37902e-10 -1.59035e-09 -8.77866e-10)
(1.19123e-10 -1.51303e-08 2.05696e-11)
(3.93366e-11 1.65758e-08 -1.27624e-10)
(-2.03516e-11 1.9035e-08 9.29538e-11)
(-6.63062e-11 -1.02522e-08 1.97813e-10)
(1.41233e-11 -3.487e-08 -3.63963e-10)
(5.29051e-11 5.27258e-09 1.28533e-09)
(-2.48226e-11 -9.72941e-11 -2.63938e-09)
(4.32757e-10 3.0076e-08 7.20506e-11)
(4.26507e-10 -6.99584e-07 1.34676e-09)
(-1.36814e-09 -1.13868e-07 -9.15343e-08)
(2.68351e-10 -6.98427e-08 8.40951e-07)
(8.27061e-12 -1.85015e-09 1.5484e-08)
(-9.3327e-13 1.10347e-08 2.12337e-08)
(2.44292e-11 1.74228e-08 1.31446e-08)
(6.41616e-12 -1.63695e-09 4.29436e-09)
(-2.59339e-11 -1.0922e-09 6.89196e-10)
(-5.52873e-12 -1.24851e-10 4.75858e-11)
(1.61137e-12 -2.07515e-11 -8.11847e-12)
(-8.44182e-12 8.72404e-10 -2.75978e-11)
(-6.25346e-11 -3.34767e-09 -5.06868e-11)
(-9.99591e-10 -2.31638e-07 -1.34523e-09)
(-6.41175e-08 3.56702e-06 -4.87415e-10)
(1.17297e-06 8.86317e-06 1.20919e-08)
(1.70595e-06 3.0881e-05 1.13979e-07)
(-1.03338e-06 -5.48652e-05 5.4458e-08)
(-1.64032e-06 -1.59144e-05 -1.62892e-09)
(-1.38128e-07 8.78655e-07 -9.38279e-10)
(1.60629e-07 -8.0713e-06 1.1075e-08)
(5.80076e-07 -1.17188e-05 1.32487e-08)
(-4.64477e-07 1.00315e-05 -8.91871e-09)
(-6.49298e-07 0.000113727 3.02667e-08)
(2.2917e-08 2.47728e-05 6.14307e-07)
(4.16328e-06 0.000136346 -9.7077e-07)
(3.98959e-06 -0.000189942 3.50795e-06)
(-3.62492e-06 -0.000203724 9.13369e-06)
(-3.70059e-06 -0.000219244 2.46214e-06)
(-4.69591e-07 -8.54819e-06 4.76483e-08)
(-9.51042e-09 -1.45568e-07 -4.19518e-09)
(-6.65078e-12 2.36045e-09 -2.96701e-10)
(-3.83696e-12 2.97126e-10 -1.05113e-11)
(-4.74749e-13 6.1695e-11 -3.43948e-13)
(-7.15455e-14 -2.9665e-11 2.79749e-13)
(2.1179e-14 -4.61981e-11 -1.82989e-13)
(1.78147e-13 2.61468e-11 -9.71295e-14)
(-2.74556e-14 1.35698e-10 4.80808e-13)
(-1.77687e-13 -1.25988e-11 -4.34335e-12)
(3.60215e-15 -9.45945e-12 6.58354e-12)
(4.76312e-13 5.54684e-11 2.31898e-12)
(2.3144e-12 -1.19605e-09 -2.3298e-12)
(-6.77364e-12 -1.11348e-09 -3.3153e-10)
(-2.39684e-12 2.55393e-09 3.13866e-09)
(2.48605e-13 2.16453e-13 6.64842e-11)
(1.14938e-12 -4.78425e-12 1.80344e-10)
(2.28741e-13 2.81121e-12 2.25082e-10)
(-1.04182e-12 -6.54184e-11 7.39754e-11)
(-4.53118e-13 -1.33799e-11 7.32043e-12)
(-5.29871e-14 -1.09305e-12 2.81439e-13)
(-6.31796e-15 3.40649e-13 1.11847e-13)
(1.50804e-14 -5.10179e-12 3.80533e-13)
(-5.23445e-14 2.13174e-11 -3.3759e-12)
(1.89503e-12 1.50243e-10 4.0338e-12)
(-2.36794e-10 2.50509e-09 2.65696e-12)
(5.42634e-09 1.59383e-07 -1.32301e-11)
(1.4129e-08 -2.91024e-06 8.42649e-10)
(-3.66232e-09 -4.07525e-06 5.84259e-10)
(-1.38822e-08 -3.43851e-07 5.31318e-12)
(-1.78104e-09 -3.59816e-09 -9.23297e-12)
(1.37416e-10 -1.14329e-09 8.84308e-11)
(-2.20441e-09 -4.02622e-07 -1.61889e-11)
(1.68062e-09 -1.44275e-06 1.3138e-10)
(3.78331e-09 7.51681e-07 -4.60475e-10)
(-1.89501e-09 1.7119e-07 -1.72789e-09)
(7.66742e-09 6.94314e-07 -4.99465e-10)
(1.40533e-08 -1.017e-05 1.67049e-08)
(-7.83594e-09 -9.21393e-06 6.68218e-08)
(-1.39542e-08 -1.16632e-06 7.49063e-09)
(-1.39492e-09 -2.36296e-08 -8.75478e-10)
(-3.20608e-11 -1.75776e-11 -8.93295e-11)
(-3.36892e-13 -9.63488e-12 -3.60865e-12)
(-1.21418e-14 -1.17114e-12 -8.10414e-14)
(-1.00328e-15 -1.04818e-13 6.11845e-16)
(-1.58104e-15 2.23614e-14 -4.70439e-15)
(-1.06553e-15 6.62313e-14 4.99439e-15)
(9.0063e-15 -3.7698e-14 1.37581e-14)
(-3.52745e-15 -3.62334e-13 7.47117e-15)
(-1.33515e-14 3.0579e-14 3.55305e-15)
(-1.38014e-15 7.19141e-14 -2.19304e-14)
(4.6004e-15 2.48537e-14 9.56416e-15)
(1.47907e-14 -1.11718e-12 -1.29586e-13)
(-1.80252e-14 -5.72454e-12 -4.60124e-13)
(-6.33821e-14 1.57059e-11 8.04221e-12)
(-5.72348e-16 1.22642e-13 1.73262e-13)
(3.39735e-15 -5.16194e-13 9.21897e-13)
(1.27256e-15 -2.46104e-12 2.00811e-12)
(-3.44166e-15 -1.02548e-12 3.88128e-13)
(1.24715e-15 -1.14578e-13 3.27028e-14)
(-1.03779e-15 -1.24975e-14 7.02756e-16)
(-1.81318e-15 -1.71765e-15 5.16997e-16)
(3.90302e-16 3.48159e-15 -6.89776e-16)
(-2.00132e-16 -3.40931e-14 1.12969e-14)
(5.98547e-15 1.19867e-13 -1.00604e-14)
(-7.90158e-13 -4.29589e-12 3.25734e-15)
(1.99171e-11 5.32898e-10 -3.28635e-13)
(9.73943e-11 -1.2213e-08 5.4982e-12)
(-5.6312e-12 -3.12453e-08 5.36686e-12)
(-9.70353e-11 -3.97135e-09 -6.74205e-14)
(-1.44291e-11 -2.25947e-11 -1.38995e-13)
(1.1614e-13 3.39883e-11 3.32097e-13)
(5.55297e-12 -3.31831e-10 1.76416e-13)
(-3.47291e-12 4.99656e-09 -5.52295e-13)
(-8.07444e-12 -4.1151e-09 1.00595e-12)
(4.21909e-12 -3.52015e-09 5.69858e-12)
(-7.05107e-12 1.50861e-10 -6.47389e-13)
(-1.97756e-11 -2.07788e-08 2.27088e-11)
(5.50171e-12 -3.14837e-08 3.27073e-11)
(1.91664e-11 -3.14133e-09 -1.05986e-10)
(4.22113e-12 -7.2227e-11 -1.8765e-11)
(1.80543e-13 -7.46089e-13 -1.02408e-12)
(-1.67079e-14 -2.38064e-14 -1.29564e-14)
(2.6538e-16 9.68947e-15 5.13578e-15)
(6.35458e-15 1.55523e-16 -2.92488e-15)
(-2.81007e-15 2.71642e-15 -9.10559e-16)
(-3.19657e-15 2.50276e-15 -2.364e-17)
(5.2903e-15 2.52315e-15 1.05562e-15)
(3.96423e-16 -1.82023e-14 -8.06243e-15)
(-1.80691e-15 4.62816e-15 3.96953e-15)
(1.57555e-15 1.72845e-14 1.75251e-14)
(-3.04067e-15 1.22594e-14 -6.70485e-15)
(-1.37317e-15 -6.84604e-15 1.1187e-16)
(-3.06328e-16 -1.89308e-14 7.42544e-15)
(5.52131e-16 4.20837e-14 1.71672e-14)
(6.74618e-16 -1.52642e-15 3.47418e-15)
(1.22682e-15 5.51392e-16 -1.98461e-15)
(2.58502e-15 -5.5731e-15 2.95139e-15)
(1.16622e-15 -6.21503e-15 -1.56266e-15)
(-3.48693e-15 -2.65064e-15 5.74675e-15)
(-3.02969e-15 -4.92073e-15 -3.69714e-15)
(1.05107e-15 -2.82575e-15 3.0204e-17)
(7.27392e-16 -2.7353e-15 -3.15017e-15)
(-6.78441e-16 9.87618e-16 -1.19555e-15)
(1.00529e-15 5.56487e-16 1.77233e-16)
(-1.6364e-15 -9.8906e-15 4.9327e-15)
(4.04967e-14 1.60653e-12 3.37095e-15)
(6.13869e-13 -4.06049e-11 4.0605e-14)
(4.27382e-14 -1.96842e-10 4.30272e-14)
(-6.21629e-13 -2.91226e-11 -5.70458e-15)
(-8.29024e-14 8.82038e-13 3.25403e-16)
(9.67583e-15 2.74002e-13 -5.55358e-15)
(-1.61199e-14 6.45376e-13 5.67563e-16)
(7.30162e-15 -1.10443e-11 -1.54468e-15)
(1.61496e-14 7.72483e-12 1.90859e-15)
(-5.03297e-15 5.42144e-12 -9.13922e-15)
(-1.21923e-13 -8.78168e-13 -4.93356e-16)
(-4.05558e-13 1.97732e-11 -3.76396e-14)
(4.7368e-14 3.9364e-11 -2.47404e-12)
(4.02047e-13 8.56767e-12 -1.42893e-12)
(7.89572e-14 3.56531e-13 -1.49486e-13)
(3.01438e-15 -3.06537e-14 -1.35835e-15)
(5.281e-16 -2.35898e-15 1.06064e-15)
(-1.67808e-15 9.9017e-15 -7.12743e-15)
(-5.18695e-15 -1.18576e-15 1.88643e-15)
(-3.02284e-16 -7.52286e-15 -5.10803e-15)
(-9.39082e-16 1.29195e-15 -2.6667e-16)
(-7.62415e-16 8.74425e-16 1.09782e-15)
(-2.90243e-15 -1.66977e-14 -1.01583e-15)
(2.85398e-15 -8.26344e-16 7.21207e-15)
(2.05566e-15 -5.97761e-15 3.81647e-15)
(-6.44081e-15 3.50879e-15 8.56335e-15)
(1.17201e-15 -9.35553e-15 -6.6081e-16)
(4.13216e-15 -2.4238e-15 6.30497e-15)
(-5.87464e-16 -5.07639e-16 -7.32142e-16)
(-1.28496e-16 -1.34355e-17 -3.19735e-15)
(1.43202e-15 -1.74059e-15 -9.70838e-15)
(-2.52669e-15 -3.80509e-15 4.73847e-15)
(-2.33796e-15 -1.01066e-14 3.57286e-15)
(2.43929e-15 -4.66266e-15 2.68471e-15)
(-9.25795e-16 8.47725e-16 1.44217e-15)
(-9.27455e-16 -5.5031e-17 5.07334e-15)
(2.41967e-15 -1.72208e-15 -1.5305e-15)
(1.63153e-15 -6.80472e-16 -5.42369e-15)
(6.13584e-16 3.01198e-16 1.6247e-15)
(-2.62798e-15 -5.17362e-15 1.40314e-15)
(4.57092e-15 -1.48941e-15 7.04025e-16)
(1.14488e-14 -7.64708e-14 -1.13169e-14)
(-4.3405e-15 -1.1306e-12 -5.23028e-15)
(-6.60771e-15 -1.56145e-13 -1.64434e-15)
(-4.65595e-15 1.55281e-14 -2.80657e-15)
(-9.2395e-16 -4.15371e-15 -3.10112e-15)
(3.95501e-15 -7.68485e-16 5.53955e-15)
(-1.75378e-15 2.70471e-14 2.9206e-15)
(-6.27559e-16 -1.29104e-14 1.0038e-15)
(3.90748e-16 -3.4801e-15 -9.165e-18)
(-1.13203e-15 -5.97618e-15 -3.54473e-16)
(-1.45247e-15 2.22233e-13 4.21793e-16)
(1.87664e-15 7.4279e-13 -1.67398e-14)
(-2.22222e-15 1.30534e-13 -1.10132e-14)
(-3.53822e-15 1.58974e-16 7.36999e-16)
(4.68841e-15 -1.25741e-14 -2.16109e-15)
(3.45731e-15 -3.40391e-15 3.35164e-15)
(1.10225e-15 -7.81748e-15 -1.28938e-15)
(-1.88e-15 8.74249e-15 -5.29555e-15)
(-1.72911e-15 -1.7526e-15 -2.6568e-15)
(1.11492e-15 1.63349e-16 1.15987e-16)
(-3.82e-15 5.87449e-16 -8.15274e-15)
(-1.8182e-16 -5.10976e-15 -6.62877e-15)
(3.51252e-15 -4.94338e-15 3.39507e-15)
(3.87253e-15 -3.43827e-15 8.81991e-16)
(-4.51633e-15 4.13972e-15 1.60931e-15)
(-4.84899e-15 9.90084e-15 2.59965e-15)
(4.02269e-15 -5.7328e-15 2.1667e-15)
(1.15623e-15 5.67539e-15 1.09023e-15)
(-3.67341e-15 3.11521e-16 5.96287e-16)
(-1.06018e-15 7.0208e-16 1.34068e-16)
(-1.88342e-15 -2.44849e-15 1.87306e-14)
(1.01757e-15 4.50145e-15 5.41945e-15)
(2.4436e-15 1.67303e-15 -5.54944e-15)
(-4.94826e-16 7.39773e-16 -7.87698e-16)
(-2.79111e-16 1.81695e-15 1.18389e-15)
(1.7798e-16 2.24154e-15 7.86676e-16)
(2.90756e-16 -2.74132e-16 3.96276e-16)
(-1.63892e-15 -7.02823e-16 -2.07685e-16)
(-2.60344e-15 -4.63174e-15 1.60729e-15)
(1.62286e-15 5.13626e-15 3.92491e-15)
(1.71093e-15 -1.17982e-14 -1.24324e-14)
(1.63665e-17 -1.55898e-14 -1.52315e-15)
(-6.09485e-16 -2.06729e-15 2.29178e-16)
(-2.03329e-16 -4.93125e-15 -1.79085e-15)
(1.03826e-15 5.70577e-15 1.55398e-15)
(4.39956e-16 -2.09771e-15 3.19006e-15)
(9.86343e-16 -8.90153e-16 2.33705e-15)
(-3.50158e-16 1.57748e-15 5.11368e-16)
(-1.45252e-15 3.23363e-16 1.66682e-15)
(4.11536e-16 -3.75335e-16 -3.82813e-16)
(-8.639e-17 2.41732e-15 5.29718e-16)
(-2.70424e-15 1.96664e-15 -2.23316e-15)
(2.5829e-16 -1.64449e-15 3.78738e-16)
(2.00757e-15 8.26041e-15 -4.89435e-16)
(7.1161e-16 5.13502e-15 2.54592e-16)
(3.06633e-15 -1.62288e-15 9.12955e-16)
(5.29133e-15 -1.64711e-15 -1.03613e-15)
(-1.90621e-15 -3.81928e-15 -2.53794e-15)
(-5.2806e-15 3.30314e-15 4.50877e-16)
(2.45975e-16 2.19317e-16 1.03249e-15)
(-3.59593e-15 -2.7681e-16 -4.3082e-15)
(-6.4898e-15 5.31632e-15 1.88421e-15)
(3.78441e-15 -1.10024e-15 9.64649e-15)
(7.29463e-15 -2.37722e-15 8.30734e-16)
(1.33016e-15 -5.48657e-15 -4.85115e-16)
(-4.10223e-15 8.08431e-15 1.52047e-15)
(1.61861e-15 2.05554e-15 1.97667e-15)
(2.64911e-15 8.54589e-16 -1.94718e-15)
(1.38922e-16 -7.98336e-16 1.7498e-15)
(-1.29711e-16 2.8355e-15 7.54227e-16)
(-8.74779e-17 1.22868e-15 3.28372e-15)
(3.21745e-17 3.34216e-15 -1.71825e-17)
(-4.229e-17 -7.22633e-17 -9.06778e-16)
(-8.75605e-16 5.60736e-16 8.87304e-17)
(-4.2275e-18 5.28991e-16 -2.76627e-16)
(1.27314e-15 -8.1672e-16 2.42275e-16)
(-1.71327e-16 -1.01783e-15 4.0503e-16)
(-2.02677e-15 -1.67865e-15 1.71753e-15)
(1.22082e-15 2.89754e-15 -2.33445e-15)
(1.5009e-16 3.70498e-15 2.74748e-16)
(-1.21081e-15 8.48405e-17 -1.66523e-15)
(1.62554e-15 6.63089e-16 9.02406e-16)
(-2.00249e-16 7.8281e-16 -2.04932e-16)
(8.7625e-18 3.28029e-15 -4.23375e-18)
(7.41291e-16 6.81294e-16 -2.26076e-16)
(-3.06263e-17 2.11339e-16 2.1315e-17)
(3.85836e-16 2.5376e-16 -5.73685e-16)
(1.44055e-16 -1.20008e-15 -4.26397e-15)
(-7.05933e-16 4.41926e-16 -1.87815e-17)
(8.88625e-17 2.12307e-15 5.22494e-16)
(-4.9566e-17 -2.55754e-15 8.42021e-16)
(-3.26895e-16 2.19508e-15 3.53595e-17)
(1.67151e-15 4.75514e-15 2.04665e-16)
(3.57681e-16 2.0857e-15 8.28405e-17)