/*--------------------------------*- C++ -*----------------------------------*\
| =========                 |                                                 |
| \\      /  F ield         | OpenFOAM: The Open Source CFD Toolbox           |
|  \\    /   O peration     | Version:  5.0                                   |
|   \\  /    A nd           | Web:      www.OpenFOAM.org                      |
|    \\/     M anipulation  |                                                 |
\*---------------------------------------------------------------------------*/
FoamFile
{
    version     2.0;
    format      ascii;
    class       volVectorField;
    location    "50.4676134421789371";
    object      MD2utz;
}
// * * * * * * * * * * * * * * * * * * * * * * * * * * * * * * * * * * * * * //

dimensions      [0 -1 -1 1 0 0 0];

internalField   nonuniform List<vector> 
60000
(
(-0.0207376 0.812381 -0.00696052)
(-0.0197285 -0.186641 0.00198345)
(-0.0088126 -0.744314 0.00322672)
(0.0122864 -0.784999 0.00850434)
(0.0209817 -0.354498 0.00707237)
(0.00703039 -0.019215 -0.0140389)
(-0.00338009 -0.0311239 -0.0207659)
(-0.00186561 -0.0508887 -0.0164865)
(0.00469284 0.175837 -0.0184163)
(0.00776656 0.647599 -0.0203683)
(0.00270937 0.925643 -0.0140461)
(-0.00233271 0.723435 0.00067695)
(-0.000535755 0.337119 0.0152279)
(0.00049008 0.173491 0.0146023)
(-0.00358553 0.09657 0.000322035)
(-0.00404841 -0.155091 -0.0103479)
(-0.00434434 -0.467532 -0.0108737)
(-0.0169183 -0.790495 -0.00906375)
(-0.0358884 -1.22037 -0.0172489)
(-0.0318156 -1.69776 -0.041739)
(0.011066 -1.74361 -0.0920915)
(0.0466082 -0.942286 -0.139243)
(0.0375671 0.150369 -0.113758)
(0.0100163 0.651757 -0.0446768)
(-0.0109813 0.478769 0.027082)
(-0.0118814 0.0168909 0.0848644)
(0.0178011 -0.153663 0.119444)
(0.0372059 0.486096 0.130701)
(0.00927575 1.21432 0.113977)
(-0.0136907 0.892771 0.0903414)
(-0.0229262 0.244982 0.0451696)
(-0.033375 -0.781648 -0.0432707)
(-0.0202223 -1.91194 -0.0951201)
(0.0056442 -2.07637 -0.0533916)
(0.0345363 -1.34755 0.0173094)
(0.0118003 -0.0412073 0.0572189)
(-0.012864 0.0308065 0.0515728)
(0.00739141 0.369579 -0.00139399)
(0.00564813 1.40236 -0.0212853)
(-0.0105834 1.56322 -0.0180598)
(-0.153816 1.0695 -0.213252)
(-0.135423 0.60257 -0.102919)
(-0.0506966 0.26308 -0.0162031)
(0.0258031 0.08865 0.031009)
(0.0541715 -0.0834199 0.0194091)
(0.0248951 -0.0719618 -0.101323)
(0.000532475 0.0107749 -0.249154)
(0.0229589 0.0465806 -0.335028)
(0.0653555 0.149458 -0.384128)
(0.0671449 0.417893 -0.418113)
(0.0046675 0.714899 -0.413433)
(-0.0568562 0.745871 -0.366281)
(-0.0549437 0.445705 -0.281698)
(-0.0248324 0.158245 -0.238423)
(-0.0292236 0.117576 -0.304018)
(-0.0524961 0.07717 -0.409399)
(-0.0593697 -0.0749946 -0.455565)
(-0.0573494 -0.138831 -0.438313)
(-0.0520045 -0.0816997 -0.43966)
(-0.01772 0.0350821 -0.430921)
(0.0640755 0.114424 -0.365214)
(0.139813 0.150696 -0.311251)
(0.119505 0.356767 -0.17568)
(0.0221068 0.299813 0.105959)
(-0.0519894 -0.159805 0.373115)
(-0.0507502 -0.647132 0.52498)
(0.0277328 -0.902601 0.574786)
(0.0970746 -0.745408 0.567859)
(0.0308287 -0.234196 0.469837)
(-0.0827744 0.0180995 0.289249)
(-0.143782 -0.134131 0.0692651)
(-0.180974 -0.264034 -0.196489)
(-0.108424 -0.574472 -0.346332)
(0.050764 -0.830669 -0.23047)
(0.167396 -0.777606 0.00239025)
(0.126166 -0.445067 0.0749402)
(0.0556819 -0.0209683 -0.0274021)
(0.130345 0.0335404 -0.222171)
(0.114303 0.602482 -0.331515)
(-0.0478955 1.13877 -0.301281)
(-0.066691 -0.442312 -0.139311)
(-0.0976072 0.201799 -0.0759473)
(-0.0617494 0.476376 -0.0205147)
(-0.0277401 0.444277 0.00659538)
(-0.00036675 0.128419 0.0091161)
(0.0156754 -0.0963242 -0.0185656)
(0.00942726 -0.0209646 -0.0969373)
(0.0110158 0.017935 -0.183256)
(0.0397842 -0.193959 -0.22642)
(0.0646301 -0.566127 -0.231213)
(0.0390647 -0.652526 -0.209029)
(-0.0266786 -0.368176 -0.186795)
(-0.0603882 -0.164551 -0.171873)
(-0.0334565 -0.173617 -0.143343)
(-0.00996115 -0.0777002 -0.154367)
(-0.0204841 0.193422 -0.220318)
(-0.0227089 0.468107 -0.275847)
(-0.0134685 0.720052 -0.265951)
(-0.0148298 0.907216 -0.231925)
(-0.0114176 1.13261 -0.251059)
(0.01845 1.09159 -0.2392)
(0.0639454 0.477966 -0.176772)
(0.0456824 -0.179161 -0.115524)
(-0.0488195 -0.472393 0.0292056)
(-0.112277 -0.478524 0.137126)
(-0.0906432 -0.371303 0.132643)
(0.0058155 -0.399086 0.124779)
(0.105495 -0.672729 0.176327)
(0.0921439 -0.846741 0.197973)
(0.00463512 -0.559198 0.141493)
(-0.0418282 -0.138699 0.0554284)
(-0.0671356 0.657783 -0.0607599)
(-0.0742267 1.53969 -0.152084)
(-0.0216825 1.59282 -0.116086)
(0.0637254 0.997035 0.00584558)
(0.0842675 0.174226 0.0511456)
(0.0333688 0.0687521 -0.0254894)
(0.064121 -0.320057 -0.139223)
(0.117565 -1.12271 -0.209032)
(0.0453475 -1.09709 -0.193161)
(-0.00304795 -0.823094 -0.0269574)
(-0.0263154 -0.388519 -0.00587102)
(-0.0197152 -0.119916 0.0122539)
(-0.0114505 0.0104958 0.0211717)
(-0.00668135 0.0445271 0.0270841)
(0.00747233 -0.0297629 0.0311267)
(0.0136673 -0.0197159 0.0155383)
(0.00291377 0.0494246 -0.0103789)
(-0.00385193 -0.0403523 -0.0135601)
(0.0109847 -0.349783 -0.000106675)
(0.0254522 -0.615868 0.00445771)
(5.06e-05 -0.546001 -0.0142334)
(-0.0304403 -0.353572 -0.0270079)
(-0.013251 -0.25333 0.00732427)
(0.0139367 -0.173217 0.0295278)
(0.0113359 -0.0742977 0.00305085)
(0.00162005 0.0415122 -0.0276862)
(-0.00787763 0.138295 -0.0180305)
(-0.00510272 0.0790206 0.0266745)
(0.00431106 0.209405 0.0362887)
(-0.0117349 0.470273 0.0161699)
(-0.008662 0.101304 0.0187947)
(0.0102376 -0.457179 -0.0194815)
(-0.00736318 -0.394585 -0.0408726)
(-0.0332929 0.0829249 -0.0326929)
(-0.0368349 0.557755 -0.0419153)
(-0.0070789 0.734813 -0.0375355)
(0.0411216 0.420247 0.0082464)
(0.038432 -0.0425411 0.0350822)
(-0.0047324 -0.203724 0.0200199)
(-0.00463075 -0.212324 0.0213351)
(0.0137149 0.00491329 0.0208483)
(0.00307113 0.475645 -0.00793005)
(-0.00848252 0.769033 -0.0249985)
(0.00361718 0.703476 -0.0038207)
(0.0163009 0.304545 0.0127952)
(-0.00281743 0.115804 -0.0029619)
(-0.00937636 0.0381989 -0.0191439)
(0.01836 -0.513174 -0.0271873)
(0.0261402 -0.966434 -0.0369756)
(0.00518939 -0.177034 -0.00464636)
(-0.00950853 -0.062035 0.000388402)
(-0.0119223 0.0105298 0.00815347)
(-0.00709792 0.0265866 0.0084685)
(-0.0051788 0.0516225 0.0133172)
(0.00780202 0.0475533 0.0214703)
(0.0197416 0.033387 0.0160978)
(0.00905428 0.0748996 -0.00026879)
(-0.0099027 0.110415 0.00288024)
(-0.00796243 0.0632923 0.0181191)
(0.0138291 -0.0735618 0.0267878)
(0.00616934 -0.118483 0.0166871)
(-0.023749 -0.00549951 -0.00867067)
(-0.0110599 0.0315529 0.0197092)
(0.0118725 0.00697327 0.049801)
(0.00537528 -0.0517065 0.0253414)
(0.0036379 -0.114012 0.00102607)
(-0.00895479 -0.0550548 0.00830963)
(-0.00618197 -0.0451676 0.0389793)
(0.040086 -0.142803 0.0656912)
(0.00690225 0.273009 0.0843606)
(-0.0544755 0.281808 0.102451)
(-0.0179854 -0.179689 0.0459664)
(0.0202291 -0.136924 -0.0332787)
(0.00886219 0.10021 -0.0433851)
(-0.00769532 0.254994 -0.0299022)
(-0.011521 0.355279 -0.0219423)
(0.00660469 0.248987 -0.00263475)
(0.0129776 0.00536648 0.011941)
(-0.0174508 0.0126911 -0.00589427)
(-0.0173545 0.0683861 -0.00323782)
(0.017905 -0.0278823 0.0244143)
(0.0215249 -0.0248029 0.0299125)
(0.00788929 0.0447733 0.0175686)
(0.00688266 0.0950958 0.00427051)
(0.0115107 0.0669634 0.000860382)
(0.0009526 0.0165677 -0.00754482)
(-0.0136713 0.0668411 0.00167651)
(-0.00857699 0.0124335 0.0181017)
(0.00525076 -0.120835 0.00999251)
(0.00491168 -0.043134 0.00397393)
(5.7625e-05 -0.0247449 -0.00076719)
(-0.00723891 0.0336248 0.00487224)
(-0.00574218 0.0435449 0.0043145)
(-0.0036942 0.060435 0.00523595)
(0.0047044 0.0629013 0.0111172)
(0.0171363 0.0158478 0.00863022)
(0.0138236 -0.0107015 -0.0044132)
(-0.00496385 0.03118 -0.00543222)
(-0.0146283 0.0721896 0.00243945)
(-0.00059115 0.0179237 0.00579297)
(0.00961865 -0.0756964 0.0106565)
(-0.00864298 -0.00603777 0.0070594)
(-0.0116087 0.0906344 0.00544633)
(0.00166953 0.0496896 0.0288952)
(-0.00618227 -0.00554423 0.0182991)
(0.000908628 -0.0558879 -0.00405531)
(0.0025547 -0.052249 -0.00233726)
(-0.018145 0.0578803 0.0132287)
(0.0482952 -0.143112 0.0254029)
(0.0499839 -0.000176821 0.0569416)
(-0.0717701 0.333049 0.107428)
(-0.0496048 0.0572897 0.067199)
(0.0317322 0.0299581 -0.0250387)
(0.0210835 0.0585652 -0.0295618)
(-0.00162242 0.0450462 -0.00233246)
(-0.0075183 0.0809568 0.00392372)
(-0.00775066 0.106392 -0.00233198)
(0.00565135 0.014175 0.00499545)
(0.00603525 0.00784543 0.0128907)
(-0.00939223 0.1726 0.00828665)
(-0.00069013 0.150033 0.0122723)
(0.0120472 0.0265277 0.0186473)
(0.00779193 0.014482 0.0198273)
(0.00660473 0.0120471 0.0110103)
(0.00502595 0.0127907 0.00102428)
(-0.00322715 -0.0329833 -0.00225189)
(-0.00955024 -0.0305511 0.00265959)
(-0.00697823 -0.008008 0.0199102)
(-9.4375e-05 -0.00593325 0.0219785)
(0.0021054 -0.00912324 0.00819829)
(0.0021999 -0.0297178 -0.000970555)
(-0.00110837 -0.00543128 0.00349288)
(-0.00280229 0.0153321 0.00706323)
(-0.00212996 0.0277426 0.00709292)
(0.000745598 0.036402 0.00897232)
(0.00783284 -0.0022468 0.00761651)
(0.0110962 -0.0576616 -0.00130607)
(0.00330085 -0.0565867 -0.00574289)
(-0.00946399 0.00190643 -0.00212759)
(-0.00914506 0.0195655 -0.000342246)
(0.00184627 -0.0409502 0.00204164)
(0.00220609 -0.0547916 0.00804803)
(-0.00178155 0.0298365 0.0108148)
(-0.00298324 0.0359935 0.00977089)
(-0.0108951 0.0163405 0.00415322)
(-0.00380714 0.021259 -0.00483665)
(0.00867596 -0.0216052 -0.00514541)
(-0.0199754 0.0450274 0.000508125)
(0.0296269 0.0252154 -0.0172346)
(0.0812216 -0.173258 -0.0160926)
(-0.0431708 0.132693 0.051237)
(-0.0648563 0.202689 0.0700638)
(0.0192459 0.10388 -0.0059682)
(0.0100901 0.00240766 -0.0167626)
(-0.00462056 -0.0100457 0.000365955)
(-0.00178543 -0.00225493 0.00590958)
(-0.00295564 0.0286198 0.00347267)
(-0.00256877 0.0436108 -0.000525361)
(0.00632616 -0.0129556 0.00319597)
(0.00534721 0.00931057 0.0110721)
(-0.00433566 0.071501 0.00941019)
(7.867e-05 0.0222635 0.00441497)
(0.00550325 -0.0201255 0.00642408)
(0.00663164 -0.0238693 0.00839441)
(0.00473255 -0.0343369 0.00295567)
(-0.00578538 -0.0231026 0.000169252)
(-0.00996639 -0.0222253 0.00031419)
(-0.00466937 -0.00735996 0.00778345)
(-6.7492e-06 -0.00381762 0.015855)
(0.00047231 -0.00104226 0.00627133)
(0.000509571 -0.00938863 -0.000727594)
(0.000353097 -0.0136115 0.000440888)
(1.18785e-05 -0.00292272 0.00520613)
(-8.144e-06 0.00392626 0.00719175)
(-0.000362228 0.0116016 0.00782859)
(0.000921202 0.00111267 0.00652781)
(0.00418143 -0.0334725 0.00148143)
(0.00505836 -0.0577265 -0.00306491)
(-0.00125514 -0.0383087 -0.00280089)
(-0.00753098 0.00302247 -0.00128053)
(-0.00315593 -0.00573381 0.00013422)
(0.00316005 -0.0262002 0.00366169)
(0.00395318 -0.00819154 0.00731332)
(-0.000312515 0.00442982 0.0035175)
(-0.0083843 0.0121303 -0.00127618)
(-0.00553265 0.040065 -0.00299347)
(0.00626058 0.0100617 -0.00688682)
(-0.00940316 0.00706197 -0.000726507)
(0.010363 0.108702 -0.0223754)
(0.066372 -0.142813 -0.0564711)
(-0.0060718 -0.140226 0.00335561)
(-0.0532842 0.125071 0.0610491)
(-0.00355331 0.0427653 0.00956715)
(0.00141596 -0.0264603 -0.00905424)
(-0.0021628 -0.00909989 -0.00230436)
(-0.00105113 -0.00268101 -0.000388595)
(0.000129012 -0.00214563 0.00141765)
(-0.0010891 0.0131078 0.00119586)
(-0.000259948 0.0117558 -0.000433849)
(0.00450373 -0.0239142 0.000193384)
(0.00205419 -0.0137698 0.00385586)
(-0.00344599 0.00934714 0.00337868)
(-0.000396695 -0.0153256 0.000825488)
(0.00400619 -0.0275122 0.00210124)
(0.00519644 -0.0491316 0.00265872)
(-0.00074936 -0.0404241 0.00127374)
(-0.00663162 -0.0107971 -3.33691e-06)
(-0.00385573 0.00200501 0.00143853)
(-0.000425538 0.00207218 0.00671353)
(-3.57215e-05 0.000768308 0.00282838)
(-0.000158755 -0.000475186 -0.000809867)
(4.3519e-05 -0.00271073 -0.00146531)
(0.000441411 -0.00191727 0.00183541)
(0.00057806 -0.00130719 0.00394869)
(0.00029335 -0.000805065 0.00485451)
(-0.000537179 0.00115538 0.00437194)
(-4.86655e-05 -0.00592177 0.00199242)
(0.00214336 -0.0206291 -0.000581112)
(0.00193161 -0.02929 -0.00139222)
(-0.0027451 -0.00959495 -0.00159502)
(-0.0035261 0.00470324 -0.000945572)
(0.00161155 -0.00392766 0.00100781)
(0.00379852 -0.00808301 0.0022248)
(0.00083666 -0.0128281 -0.000444212)
(-0.00397127 -0.00352675 -0.0011113)
(-0.00404506 0.0223163 0.000993557)
(0.00227287 0.0146883 -0.00448679)
(-0.00118571 -0.00694751 -0.00271027)
(0.00141002 0.0638395 -0.00875701)
(0.0325759 -0.0601381 -0.0471144)
(0.00698676 -0.205045 -0.00908344)
(-0.0291641 0.000336372 0.0424629)
(-0.00893794 -0.000738105 0.0108935)
(0.000533897 -0.0120614 -0.00395039)
(-8.14825e-05 -0.00467117 -0.00139737)
(-0.000459585 0.00014631 -7.5327e-05)
(-9.2629e-05 -0.000161499 0.00013963)
(8.03399e-05 -0.00118122 0.000440862)
(-0.000454237 0.00528763 0.0002771)
(0.000288477 2.25358e-05 -0.000350495)
(0.00170691 -0.0174269 -0.000207003)
(0.000130914 -0.00879127 0.000923608)
(-0.0013156 0.0010207 0.000986684)
(8.84535e-05 -0.00786162 0.000229525)
(0.00208119 -0.0197861 0.00058627)
(0.00142054 -0.0320282 0.000894488)
(-0.00175831 -0.0132628 4.13399e-06)
(-0.00215921 0.000187108 9.58275e-06)
(-0.000577644 0.00253791 0.00211028)
(-0.000145496 0.000922408 0.000989077)
(-0.000195285 0.000749216 -0.000741902)
(6.43085e-05 0.00138037 -0.00151157)
(0.000279637 0.000708977 0.000253542)
(0.000178515 -0.000205394 0.00156788)
(0.000117742 -0.00170856 0.0018911)
(-6.60883e-05 -0.00144718 0.00160836)
(-0.000227426 0.000673556 0.00088336)
(0.000160535 -0.00130174 7.68363e-05)
(0.000869614 -0.00903147 -0.000239159)
(-0.000462849 -0.00928214 -0.000648919)
(-0.00185629 0.00307297 -0.00112226)
(0.000475307 0.00341649 -4.12162e-05)
(0.00198851 -0.00415964 0.000300439)
(0.000582153 -0.0102397 -0.000894396)
(-0.00102129 -0.00676162 -0.000783452)
(-0.00163344 0.00690847 0.00142503)
(0.000162089 0.00944811 -0.000609005)
(0.000682039 -0.00376706 -0.00260934)
(-0.000544767 0.0159348 -0.00107208)
(0.010042 -0.0109074 -0.019835)
(0.00603076 -0.118384 -0.00708978)
(-0.010321 -0.0307139 0.0221724)
(-0.00575335 -0.000563454 0.00824097)
(0.000632254 -0.00193965 -0.000735067)
(0.000337884 -0.00160431 -0.000654618)
(-0.000108943 -0.000576505 -8.841e-06)
(-0.000143411 0.000245486 0.000160049)
(2.1642e-06 -0.000391107 5.57207e-05)
(2.81088e-05 -0.000133332 9.41133e-05)
(-0.00011364 0.00166683 3.53678e-05)
(0.00012879 -0.00148235 -2.39499e-05)
(0.000288068 -0.00596443 -0.000188244)
(-9.44133e-05 -0.00193469 6.61699e-05)
(-0.000217518 -8.49336e-05 0.000143963)
(0.000141726 -0.00243391 1.41082e-05)
(0.000477095 -0.0094779 0.000184195)
(3.1778e-05 -0.00853617 9.51146e-05)
(-0.000515506 -0.00127444 4.0653e-05)
(-0.000280405 0.000881795 0.000590436)
(-5.6893e-05 0.00031569 0.000223184)
(-4.24654e-05 0.000632571 -0.000363991)
(3.14763e-05 0.000993012 -0.000718064)
(6.86672e-05 0.000459323 -1.0336e-05)
(2.56782e-05 -1.57144e-05 0.000483389)
(6.54107e-06 -0.000250077 0.000460881)
(-9.26235e-07 -0.000492712 0.000359715)
(5.61835e-06 1.9176e-05 0.000192349)
(-3.48008e-05 0.000438067 3.54653e-05)
(8.15053e-05 -0.000649949 -3.87588e-05)
(-8.6141e-06 -0.00305178 -0.000127528)
(-0.000580081 0.00124936 -0.000441896)
(-4.71649e-05 0.00408316 -0.000149357)
(0.000631845 -0.00101336 6.51277e-05)
(0.000223915 -0.00351379 -0.000272078)
(-6.5141e-05 -0.00297872 -0.000370582)
(-0.000313562 0.00057397 0.000284484)
(-0.000130415 0.0033817 0.000390837)
(0.000213815 -0.000290564 -0.000780571)
(-0.000141043 0.000833304 -6.56727e-05)
(0.00192021 0.00193841 -0.00423659)
(0.00222061 -0.0385195 -0.00293329)
(-0.00217798 -0.0202282 0.00772912)
(-0.00220025 0.00149144 0.00424323)
(0.000268003 0.0006966 0.000141675)
(0.000209834 -0.000585389 -0.000171797)
(-4.15897e-05 -0.000415504 -3.07917e-05)
(-4.18148e-05 -0.000175487 5.25098e-05)
(-4.59971e-06 0.000145713 5.51293e-05)
(1.21512e-06 -0.000186361 4.92786e-06)
(-1.15821e-06 3.16953e-05 1.38363e-06)
(-3.85561e-06 0.000275837 1.15993e-06)
(3.48106e-06 -0.000493958 -7.9372e-07)
(1.90836e-06 -0.000895636 -2.69955e-06)
(-2.4133e-06 -0.000108873 4.74412e-06)
(-2.48212e-05 -1.08445e-05 -3.02599e-07)
(1.9489e-05 -0.000695172 7.39625e-06)
(7.10014e-05 -0.00194463 -3.203e-06)
(-1.63574e-05 -0.000791336 -5.26494e-06)
(-6.88543e-05 0.000152952 0.000109359)
(-2.46462e-05 8.56069e-05 9.64493e-05)
(-2.74958e-05 0.000191697 -8.20484e-05)
(2.0741e-05 0.000231683 -0.000241895)
(2.80243e-05 8.3194e-05 -1.95241e-05)
(2.02927e-06 -1.06726e-05 8.52007e-05)
(-5.12494e-08 -1.06025e-05 5.60376e-05)
(1.5429e-07 -3.47739e-05 0.000102243)
(7.60242e-07 -7.08607e-06 6.03697e-06)
(-6.18548e-07 -5.51905e-05 9.31915e-07)
(5.16595e-06 0.000121202 -1.41581e-06)
(4.99026e-06 -0.000354037 -1.04957e-06)
(-5.41481e-05 0.000151167 -0.000147891)
(-8.39867e-05 0.0017465 -2.15192e-05)
(6.94531e-05 0.000286379 7.71779e-05)
(8.64379e-05 -0.000539934 -4.00851e-05)
(-1.21608e-05 -0.000495979 -0.000120868)
(-4.58442e-05 -0.000305643 -6.30056e-06)
(-4.19616e-05 0.000643533 7.11291e-05)
(3.96539e-05 0.000162236 -0.000149538)
(1.77027e-05 -0.000129161 -4.5479e-05)
(0.000214746 0.000686974 -0.000492877)
(0.000415857 -0.00706288 -0.000626415)
(-0.000317451 -0.00728075 0.00169082)
(-0.000448485 0.000748034 0.00128858)
(0.00010694 0.000499491 0.00018999)
(4.96331e-05 -0.000171391 -9.60499e-06)
(-4.79149e-06 -0.000153937 2.85394e-05)
(-1.78561e-06 -1.52861e-05 5.07355e-06)
(-8.20748e-08 -3.22364e-07 4.17238e-07)
(-1.488e-08 1.64303e-06 1.94898e-08)
(6.99665e-09 -4.80919e-06 -6.4217e-09)
(2.9942e-08 5.9168e-06 -5.81348e-09)
(-3.04019e-08 9.42009e-06 3.92049e-09)
(2.33725e-09 -6.93111e-06 2.15173e-08)
(6.09414e-08 2.38251e-06 -6.66047e-08)
(4.17845e-08 1.98966e-06 1.0897e-07)
(2.57877e-07 9.39391e-05 -2.64248e-08)
(1.63135e-06 -6.97995e-05 1.71643e-07)
(1.43198e-06 -0.000167281 -1.48806e-06)
(-2.19887e-06 -9.33544e-06 2.41468e-05)
(-7.23315e-08 1.65596e-06 2.58985e-06)
(-2.99259e-07 7.65159e-05 -1.66802e-05)
(1.16258e-07 9.34492e-05 -2.87323e-05)
(3.50216e-07 7.24225e-06 -2.31103e-06)
(6.02427e-08 -9.20244e-08 3.40729e-06)
(1.19924e-08 4.82518e-07 2.82145e-06)
(1.40479e-08 8.39836e-08 6.2701e-07)
(1.20582e-08 -2.88719e-08 5.95993e-08)
(4.68744e-08 -2.452e-06 -1.32229e-08)
(-1.34956e-08 2.05195e-06 -4.81704e-08)
(-1.0581e-06 -1.9717e-05 2.32728e-06)
(-5.99673e-06 -1.49574e-05 -7.3786e-06)
(-2.8738e-06 0.000159188 -9.75586e-06)
(5.90733e-06 0.000264624 9.43896e-06)
(4.0299e-06 -7.08912e-05 -1.40558e-06)
(-5.18336e-07 -2.27783e-05 -1.05595e-06)
(-3.01777e-07 -3.04235e-05 4.95956e-06)
(4.37301e-07 0.000130284 5.14881e-06)
(6.29853e-07 0.000109934 -4.02094e-06)
(-4.70281e-07 -2.03365e-06 -1.91904e-05)
(2.20157e-05 5.04993e-05 -6.87622e-05)
(2.32475e-05 -0.000712 -0.000133361)
(-3.33508e-05 -0.00133237 0.000213326)
(-5.35054e-05 0.000332919 0.000183717)
(9.5423e-06 0.00014784 9.55598e-05)
(3.08959e-05 -1.68495e-05 1.21911e-06)
(1.31175e-06 -5.98988e-06 1.98497e-07)
(6.10235e-09 -2.85719e-07 3.34824e-08)
(-1.86482e-09 -1.93268e-08 2.42581e-09)
(-8.75374e-11 -1.21248e-08 5.13332e-11)
(-4.1293e-11 3.03577e-08 2.41795e-11)
(-2.04446e-10 -3.55146e-08 1.75849e-11)
(2.57909e-10 -6.97444e-08 -1.30225e-11)
(-8.6174e-11 6.61383e-08 -1.98863e-10)
(-2.07073e-10 -7.75773e-08 7.72935e-10)
(2.78768e-10 -1.37539e-07 -9.95012e-10)
(-7.91467e-10 -2.17104e-07 -1.24206e-10)
(2.07476e-08 -9.99425e-07 9.3672e-09)
(-1.07469e-07 -5.66078e-06 -1.61831e-07)
(-8.56052e-08 -5.81947e-06 1.42515e-06)
(3.70294e-09 1.95957e-07 -3.04208e-07)
(6.34677e-09 5.47514e-07 -1.53718e-06)
(-3.61292e-09 1.10362e-06 -8.58732e-07)
(-5.75736e-09 1.94537e-07 -1.26368e-08)
(4.79606e-10 4.18922e-08 8.34293e-09)
(3.32626e-10 1.23724e-08 2.71959e-09)
(-9.75986e-11 5.69439e-09 2.37378e-10)
(1.05514e-10 -3.01747e-08 5.44942e-13)
(-1.92123e-10 -3.07776e-08 7.95358e-12)
(-1.65489e-10 -1.72114e-07 6.18983e-11)
(-1.19772e-09 1.00294e-08 2.6045e-09)
(-4.22739e-08 3.03033e-06 -2.25687e-07)
(-4.25208e-08 1.8149e-05 1.42605e-06)
(3.90844e-08 1.17158e-05 1.11106e-06)
(4.44322e-08 2.79613e-07 2.14898e-08)
(-2.3728e-10 -4.68544e-07 -8.93969e-09)
(-5.06826e-09 1.84857e-06 1.95467e-09)
(6.59256e-09 4.43498e-07 1.86192e-07)
(-8.48138e-09 5.26679e-07 5.72329e-07)
(-4.61051e-08 -1.46477e-06 -9.53052e-08)
(2.03812e-07 1.93693e-06 6.30654e-07)
(-2.40351e-07 -6.80469e-05 -6.21369e-07)
(-1.73674e-06 -6.85106e-05 5.27109e-06)
(-4.75402e-07 3.23359e-05 3.46489e-06)
(1.49904e-06 9.32985e-05 8.75813e-08)
(7.57874e-07 3.95052e-06 -3.06535e-08)
(4.70641e-08 1.78364e-08 1.14303e-13)
(8.62762e-10 -5.6134e-09 4.03135e-10)
(-1.48527e-11 -3.83665e-10 2.384e-11)
(-1.49302e-12 2.60027e-11 5.30231e-13)
(4.37735e-14 -1.19171e-10 -6.92503e-14)
(1.1223e-12 1.51005e-10 -5.72406e-14)
(-1.9346e-12 4.99967e-10 2.61407e-14)
(1.10637e-12 -6.30203e-10 1.4925e-12)
(1.03292e-12 7.61102e-10 -6.78107e-12)
(-1.72027e-12 -3.11313e-12 5.5037e-12)
(-9.74535e-12 -8.31525e-11 4.77086e-12)
(1.36023e-10 2.38965e-09 1.12285e-10)
(-5.93398e-10 -6.28444e-08 -3.34752e-09)
(-1.04141e-09 3.27516e-07 4.0649e-08)
(2.9957e-13 2.47956e-09 -2.39136e-09)
(8.63212e-12 -8.49924e-09 -7.97339e-09)
(-1.65741e-11 -1.49245e-08 -2.07378e-09)
(-3.80493e-12 1.40392e-09 -3.10229e-10)
(1.80583e-11 8.64544e-10 -5.58503e-11)
(2.77084e-12 9.39612e-11 -3.30767e-12)
(9.76686e-13 -4.68428e-11 1.79982e-13)
(-1.05141e-12 3.61847e-10 -4.36614e-15)
(2.08715e-13 -3.3645e-10 1.97087e-14)
(1.36795e-12 8.88756e-10 -4.5863e-13)
(-5.34369e-13 1.17708e-10 1.31271e-11)
(-2.51377e-10 4.17315e-09 -6.5497e-10)
(-4.42064e-10 1.15975e-07 8.76936e-09)
(2.01047e-10 1.20652e-07 1.46946e-08)
(4.40451e-10 8.85006e-09 9.68795e-10)
(2.2383e-11 -1.06878e-09 -1.00272e-10)
(9.83925e-12 9.50744e-09 -2.42711e-11)
(-3.2629e-11 1.2832e-08 2.24144e-10)
(2.41529e-10 -8.57829e-09 -3.32896e-09)
(-4.63385e-11 3.61494e-08 1.18817e-09)
(-6.0787e-11 1.17849e-07 -3.51457e-09)
(-3.81899e-09 -5.22767e-07 -1.0627e-09)
(-2.67214e-08 7.75928e-07 2.59922e-08)
(-4.59998e-09 4.23248e-06 2.25776e-08)
(2.61507e-08 2.07832e-06 -2.91334e-09)
(8.52364e-09 1.28917e-07 -1.45152e-10)
(3.81642e-10 2.36144e-09 5.4332e-11)
(2.07964e-12 -4.0897e-11 5.34758e-12)
(-3.81816e-13 -3.85498e-12 1.87088e-13)
(-1.83798e-14 -2.63182e-13 3.3052e-15)
(-3.52297e-16 2.34964e-13 -9.83705e-15)
(-8.68938e-15 -3.82469e-13 -2.07442e-16)
(5.54208e-15 -2.84575e-12 -4.01915e-15)
(-7.8599e-15 4.92847e-12 -2.73209e-15)
(5.9555e-16 -5.89195e-12 2.67749e-14)
(1.60845e-14 2.0765e-12 -4.04685e-14)
(-6.35416e-14 -1.15516e-12 1.47181e-13)
(5.86715e-13 2.8797e-11 -1.56897e-13)
(-1.88281e-12 -3.74009e-10 -2.62995e-11)
(-8.3207e-12 1.65553e-09 4.46219e-10)
(-1.90377e-13 1.92032e-11 -1.2654e-11)
(-7.7192e-13 4.03098e-12 -9.46335e-11)
(-3.40635e-14 -2.43473e-12 -3.60584e-11)
(7.87891e-13 4.5192e-11 -5.54837e-12)
(2.34039e-13 7.21525e-12 -4.34578e-13)
(1.60433e-14 3.93206e-13 -1.30757e-14)
(-2.0899e-15 3.37256e-13 -3.10357e-16)
(3.7079e-15 -2.03763e-12 -1.75567e-15)
(2.60896e-15 2.94812e-12 -3.87976e-16)
(-3.12596e-15 -2.5557e-12 1.2976e-15)
(3.24022e-14 -4.50622e-13 1.98664e-14)
(-1.47049e-12 -1.22337e-12 -1.98685e-12)
(-3.75908e-12 6.2369e-10 3.64861e-11)
(9.47195e-13 1.09607e-09 1.36812e-10)
(3.72033e-12 1.24454e-10 1.33753e-11)
(3.70873e-13 2.77933e-12 -1.73127e-12)
(-7.62565e-14 6.89471e-11 -3.02092e-13)
(4.46393e-13 -2.16816e-11 -6.86887e-13)
(-1.17972e-12 1.50108e-10 1.26032e-11)
(3.22845e-12 -6.21997e-10 -5.55542e-12)
(1.36233e-12 2.65977e-10 7.03712e-12)
(-1.55913e-11 -4.70669e-10 -3.75111e-12)
(-1.69791e-10 9.75002e-09 8.36985e-11)
(-3.63048e-11 6.58756e-08 8.36384e-11)
(1.67589e-10 2.11699e-08 -3.72195e-12)
(4.83428e-11 9.46717e-10 7.04432e-12)
(2.0996e-12 5.10809e-12 1.05722e-12)
(3.0803e-14 -9.46713e-13 4.53166e-14)
(1.04638e-15 -3.66265e-14 1.70836e-15)
(1.80539e-16 -8.94088e-15 -5.13777e-16)
(3.39076e-16 1.99413e-15 -4.3804e-16)
(-3.41859e-16 7.25759e-16 3.71448e-15)
(1.7524e-15 1.87385e-14 -6.94868e-15)
(-4.11891e-15 -1.5009e-14 1.43345e-14)
(-7.89586e-15 3.46878e-14 -6.6552e-16)
(6.13603e-15 -2.04885e-14 1.08323e-14)
(5.12266e-15 -9.99495e-15 9.27925e-15)
(1.34238e-15 1.40216e-13 -1.80688e-14)
(-8.77481e-15 -1.4596e-12 -8.36651e-14)
(-3.57253e-14 4.82008e-12 2.91064e-12)
(-1.7147e-16 7.57186e-14 -3.31491e-14)
(-5.53679e-15 4.53522e-13 -8.96996e-13)
(-2.98028e-15 1.80684e-12 -3.60785e-13)
(5.84603e-15 5.2344e-13 -3.8468e-14)
(4.19759e-15 3.93919e-14 -3.73612e-15)
(8.72041e-16 1.21134e-15 -3.46129e-15)
(-1.7446e-15 1.18063e-15 -9.85467e-16)
(-9.17174e-16 6.08158e-15 5.35518e-16)
(-7.06933e-17 -7.46152e-15 1.63585e-15)
(1.9458e-16 -1.42956e-15 -5.07885e-16)
(-1.24136e-15 2.794e-15 4.1345e-16)
(-9.35123e-15 -7.7192e-14 -8.17074e-15)
(-2.80879e-14 3.31967e-12 8.73132e-14)
(5.09557e-15 8.38192e-12 9.90613e-13)
(2.94831e-14 1.17557e-12 4.50871e-14)
(5.80859e-15 1.12952e-14 -3.52553e-14)
(4.09131e-16 3.40839e-13 4.90928e-15)
(-1.96139e-15 1.81384e-13 1.11456e-15)
(2.46419e-16 -6.58555e-13 -3.28417e-14)
(-2.62634e-15 2.83969e-12 4.29473e-15)
(-2.17854e-15 -7.9286e-12 -2.36358e-14)
(1.38595e-14 -2.25707e-13 -9.0261e-15)
(3.88013e-13 2.7165e-11 1.10223e-13)
(1.97667e-13 3.82019e-10 7.40321e-14)
(-3.73515e-13 1.08923e-10 4.29291e-13)
(-2.09558e-13 4.73016e-12 1.27955e-13)
(-1.19889e-14 7.59996e-14 1.07638e-14)
(6.49744e-15 5.80333e-15 4.28153e-15)
(-4.90198e-15 8.83559e-15 2.8724e-15)
(-3.14715e-15 -5.69807e-15 1.28544e-15)
(3.8709e-15 -7.54764e-16 9.42585e-17)
(-2.11632e-15 3.14238e-16 -1.1701e-15)
(-1.05557e-15 2.4871e-15 -3.20979e-15)
(-1.16183e-15 -5.53571e-15 -6.28515e-15)
(-9.57535e-16 8.26638e-15 4.4439e-16)
(-2.73566e-15 2.39103e-14 2.42486e-15)
(7.3266e-16 -2.11971e-16 5.88746e-15)
(3.4125e-15 3.82913e-16 -1.02696e-15)
(1.94168e-15 -8.08813e-15 4.2318e-16)
(-1.41299e-16 2.19487e-14 7.94968e-15)
(1.53602e-15 6.83068e-16 4.84342e-17)
(-2.47764e-15 3.32303e-16 -3.8819e-15)
(-3.00059e-15 7.14988e-15 -2.9366e-15)
(2.25941e-15 1.2638e-15 -9.23907e-15)
(1.78111e-15 1.59618e-15 -4.8746e-15)
(-1.12186e-15 -3.40993e-15 -8.23156e-15)
(2.62785e-16 -3.22426e-15 9.9525e-16)
(-5.0361e-17 -3.49137e-15 -6.32503e-16)
(-7.96582e-16 -7.96514e-16 2.05126e-15)
(1.55898e-15 4.24613e-16 -2.45596e-16)
(-1.26162e-15 2.62739e-15 -2.96673e-15)
(4.53568e-15 4.52369e-15 -1.51667e-15)
(2.22822e-15 2.59351e-14 -5.60529e-15)
(-6.54046e-15 6.1853e-14 1.42223e-14)
(-1.75075e-15 9.95388e-15 6.36915e-16)
(-6.09595e-16 -2.39311e-16 5.19716e-15)
(-7.9825e-16 -5.28563e-15 -9.09712e-15)
(2.80142e-15 7.38219e-16 9.37012e-15)
(1.50975e-15 3.66419e-16 1.71891e-15)
(-1.59344e-15 -1.55867e-15 -9.35962e-16)
(6.12969e-16 6.07299e-15 -1.39522e-15)
(-2.20762e-16 2.86928e-15 -4.08847e-16)
(8.31438e-15 -2.44875e-14 -1.16682e-16)
(2.75857e-15 -7.86638e-13 2.64321e-15)
(-9.13271e-15 -4.25387e-13 1.64025e-16)
(8.0408e-16 -3.01623e-14 -2.25545e-15)
(1.82188e-15 5.92836e-15 1.07018e-15)
(3.8671e-16 4.13903e-16 1.89813e-15)
(-3.97678e-15 -1.04642e-14 -5.76677e-16)
(-4.17744e-15 8.84208e-15 -1.63573e-15)
(2.92106e-15 -5.18335e-15 3.80648e-15)
(1.43228e-15 7.83661e-16 -1.95015e-15)
(-8.25109e-16 3.19918e-15 1.71576e-16)
(-1.59153e-15 2.64763e-15 7.88056e-16)
(5.82516e-15 -1.41361e-19 2.03687e-15)
(2.89896e-15 7.61057e-15 5.35592e-15)
(-5.96022e-15 8.7617e-15 6.75172e-15)
(-2.73527e-15 -4.17975e-15 1.22874e-16)
(6.89271e-16 1.97881e-15 -8.4424e-16)
(1.68228e-15 1.15221e-15 1.1883e-15)
(-7.92585e-16 -2.92261e-15 -1.60381e-15)
(-2.35358e-15 -2.69237e-15 2.49005e-15)
(-2.47391e-15 8.30105e-16 2.06776e-15)
(3.21189e-15 3.84667e-15 9.69795e-16)
(1.91834e-15 1.67452e-15 -3.75883e-15)
(-1.53051e-15 -1.38776e-15 -1.07506e-15)
(-1.99707e-15 8.78127e-16 -7.23944e-16)
(3.07097e-16 -1.18593e-15 2.77305e-15)
(2.12457e-15 -2.46221e-16 -3.71834e-17)
(1.90646e-15 -6.07979e-16 -9.46957e-17)
(9.79774e-16 1.12704e-15 -3.41564e-15)
(1.8247e-15 5.18626e-16 -5.13997e-15)
(-1.9998e-16 -1.10714e-14 -2.33645e-15)
(-2.34786e-15 -6.86171e-15 2.29638e-15)
(-8.87907e-16 1.96138e-15 1.18599e-15)
(-1.775e-15 -2.16759e-15 -3.84865e-15)
(1.06366e-15 -1.79569e-15 -5.95418e-15)
(6.03889e-16 5.01071e-15 -2.17846e-15)
(-1.12815e-15 8.0225e-16 1.1973e-15)
(3.55673e-16 8.3087e-16 1.54087e-15)
(-7.12731e-17 -8.41542e-17 -3.65892e-16)
(-1.22267e-15 -3.57625e-16 -1.13454e-15)
(3.26595e-17 1.29263e-15 -2.46406e-15)
(8.75254e-16 -1.62427e-14 -2.64757e-16)
(-1.82699e-15 -1.25767e-15 2.77047e-15)
(2.09497e-15 -2.37472e-15 1.47836e-15)
(3.12971e-15 -5.02886e-15 -3.72735e-15)
(-1.74226e-15 -2.87674e-15 -1.88722e-16)
(-4.35455e-16 -9.68147e-15 3.00386e-15)
(-1.81414e-16 -1.40538e-15 2.80047e-15)
(-3.92903e-16 1.33473e-15 -5.05036e-16)
(2.05315e-15 -3.734e-16 -2.54879e-15)
(-7.0438e-17 -4.36465e-15 6.73708e-15)
(-2.84917e-15 -3.46329e-15 -7.04437e-15)
(1.02501e-15 1.07925e-14 -2.55111e-15)
(1.42259e-15 -9.78106e-15 -1.52941e-15)
(-4.95519e-15 -2.26288e-15 8.75258e-15)
(3.7882e-16 1.26656e-15 7.07888e-16)
(4.95814e-15 3.4729e-15 -1.21347e-15)
(-1.03206e-15 5.19242e-15 6.30857e-16)
(-2.93377e-15 -7.24758e-16 -6.41304e-16)
(-2.48095e-16 -7.97197e-16 -2.63461e-15)
(8.52123e-16 4.29108e-15 -4.64782e-15)
(2.6651e-15 3.48254e-15 4.13128e-15)
(-1.36095e-15 -1.70216e-15 1.37652e-15)
(-1.55531e-15 1.13836e-15 1.33456e-15)
(6.17989e-16 2.51591e-15 1.03684e-15)
(-7.59321e-16 3.98397e-15 -1.14908e-15)
(-7.54484e-16 2.90855e-15 1.04574e-15)
(2.3435e-15 -1.99471e-16 4.54656e-16)
(-8.21111e-16 9.86628e-16 -6.10151e-15)
(-2.47202e-15 7.96293e-16 1.06523e-14)
(-1.9298e-15 -9.79055e-15 -8.40866e-15)
(8.11971e-16 -2.26898e-15 -2.22824e-15)
(9.64635e-16 -1.45722e-15 -4.21506e-16)
(-2.73364e-15 -1.82421e-15 -1.63309e-15)
(3.29783e-15 -1.02776e-16 -2.46801e-15)
(4.58195e-15 2.45562e-15 9.00563e-16)
(-7.14055e-16 9.90745e-16 -6.11783e-16)
(-2.32545e-15 2.19985e-17 3.08377e-16)
(-2.618e-17 1.67658e-15 7.73438e-16)
(7.05941e-16 7.03484e-16 3.46638e-16)
(-3.17943e-16 -7.53158e-16 -8.16555e-16)
(1.43016e-15 1.82665e-15 -7.83061e-16)
(-1.60438e-15 1.86071e-15 -9.48856e-16)
(-1.5834e-15 2.06441e-15 1.71952e-15)
(1.38612e-15 -3.01394e-15 2.08298e-15)
(-2.17242e-15 -2.3482e-15 -5.86075e-16)
(-3.46521e-15 -7.4025e-16 -4.45648e-15)
(1.99041e-15 -2.22533e-15 -3.888e-15)
(3.88176e-15 2.7222e-15 1.33684e-15)
(-2.03783e-15 -9.62469e-17 1.10427e-15)
(-2.74981e-15 -2.98952e-15 -2.4514e-15)
(7.59611e-15 1.29945e-17 1.31946e-14)
(2.54831e-15 6.40042e-15 9.65018e-15)