/*--------------------------------*- C++ -*----------------------------------*\
| =========                 |                                                 |
| \\      /  F ield         | OpenFOAM: The Open Source CFD Toolbox           |
|  \\    /   O peration     | Version:  5.0                                   |
|   \\  /    A nd           | Web:      www.OpenFOAM.org                      |
|    \\/     M anipulation  |                                                 |
\*---------------------------------------------------------------------------*/
FoamFile
{
    version     2.0;
    format      ascii;
    class       volVectorField;
    location    "50.4676134421789371";
    object      MD2utx;
}
// * * * * * * * * * * * * * * * * * * * * * * * * * * * * * * * * * * * * * //

dimensions      [0 -1 -1 1 0 0 0];

internalField   nonuniform List<vector> 
60000
(
(0.00189042 -0.00184769 0.00475879)
(-0.0036143 7.98848e-05 -0.000418258)
(-0.00854903 -0.131728 0.00116299)
(-0.000178135 -0.280346 0.00327573)
(0.00824728 -0.159741 0.0009201)
(0.00303852 -0.00480591 -0.0113919)
(-0.000826002 -0.0313051 -0.00977014)
(-0.0004603 -0.0803934 0.00222156)
(-0.00194535 -0.176735 0.0119643)
(-0.00147721 -0.312223 0.0209887)
(0.00200764 -0.270495 0.0231009)
(0.00276796 -0.065676 0.0116445)
(0.00134605 0.0401926 -0.00286265)
(0.000354189 0.051773 -0.00888388)
(-0.000770975 0.0362069 -0.0132458)
(-0.000678309 -0.0783025 -0.0208846)
(9.7548e-05 -0.208713 -0.0259373)
(0.00125768 -0.234953 -0.026694)
(0.00463807 -0.139299 -0.0152002)
(0.00739003 -0.0111217 0.0120664)
(6.165e-05 0.0671846 0.0346116)
(-0.0146178 -0.0957665 0.0461302)
(-0.020476 -0.507666 0.0330314)
(-0.0173122 -0.896833 0.0081346)
(-0.0145455 -1.17315 -0.00462712)
(-0.0141959 -1.38109 0.00319523)
(0.0014138 -1.57925 0.0402414)
(0.0342257 -1.18818 0.0759559)
(0.0376528 -0.0389583 0.0438146)
(0.0181523 0.593778 0.015972)
(0.00487465 0.676861 0.0240573)
(-0.0163418 0.638441 -0.00667228)
(-0.0267791 0.197293 -0.0261832)
(-0.00144042 -0.302867 -0.0448627)
(0.0118787 -0.0986574 -0.00698252)
(0.0027274 0.0618466 -0.0173147)
(0.00516882 -0.0930387 -0.0704344)
(-0.000744632 0.142728 0.000698475)
(-0.00538556 -0.00822389 0.0304516)
(0.00114717 -0.0869058 0.0229976)
(0.00669743 -0.0458212 -0.0084242)
(-0.00912624 0.0132985 -0.036568)
(-0.0188818 0.0465115 -0.0133234)
(-0.0026322 0.0387902 0.00043908)
(0.0187215 -0.0305233 -0.0116255)
(0.00961592 -0.0165332 -0.0425467)
(-0.00672131 0.00559348 -0.0267597)
(-0.0141779 -0.0202046 0.0507766)
(-0.0212636 -0.0836079 0.105208)
(-0.0078377 -0.202625 0.122009)
(0.022681 -0.230413 0.0963882)
(0.028319 -0.0701404 0.0177181)
(0.0103746 0.0583012 -0.0518476)
(-0.00079345 0.0504879 -0.0709966)
(-0.0122844 0.0438931 -0.0810747)
(-0.0239841 -0.0264825 -0.102079)
(-0.0159267 -0.197186 -0.109982)
(0.0056214 -0.259462 -0.101067)
(0.0174836 -0.1639 -0.0661992)
(0.0126942 -0.085697 0.0412324)
(-0.00861575 -0.0807981 0.133038)
(-0.041915 -0.0919335 0.135616)
(-0.0582927 -0.122481 0.100281)
(-0.0480931 -0.112805 0.0146252)
(-0.032846 -0.0789334 -0.0393425)
(-0.02534 -0.182738 -0.0160725)
(0.01792 -0.430054 0.07245)
(0.117765 -0.509492 0.156932)
(0.138386 -0.183633 0.0926661)
(0.0522489 0.144527 -0.0093048)
(-0.0008704 0.102915 0.0384498)
(-0.03039 0.0910754 0.0103355)
(-0.0654973 0.152133 -0.0129065)
(-0.0282961 0.0756563 -0.00261969)
(0.023718 0.0195281 0.0266447)
(-0.00244315 0.161068 -0.0287281)
(0.0024623 -0.00577957 -0.299208)
(0.00938681 -0.0149234 -0.113089)
(-0.0172446 0.0291597 0.0755349)
(-0.000622371 -0.0714742 0.0663223)
(0.0108407 -0.0172723 0.0102652)
(0.00724993 0.00562887 -0.0220516)
(-0.00463487 0.0846929 -0.0140161)
(-0.00851018 0.154411 -0.000450198)
(0.00099321 0.0754287 0.00063105)
(0.00638151 -0.00645807 -0.0139734)
(-0.000623235 0.0357376 -0.0232596)
(-0.00897921 0.0691585 0.00731227)
(-0.0202737 0.135439 0.0498839)
(-0.0171808 0.206269 0.081908)
(0.0146291 0.15444 0.0901854)
(0.0322974 0.0446902 0.0480137)
(0.0138548 -0.0170992 -0.0121769)
(-0.0011327 -0.0544626 -0.0308364)
(-0.00815536 -0.0321193 -0.0318603)
(-0.0251311 0.0605949 -0.0464951)
(-0.0242084 0.0838595 -0.0541812)
(0.00451495 0.0890817 -0.0551449)
(0.0226736 0.126275 -0.0622245)
(0.0161025 0.0508337 -0.0136636)
(0.000267315 0.00397979 0.0615424)
(-0.0164302 0.188969 0.038716)
(-0.0188766 0.477864 0.00971018)
(-0.00926255 0.674379 -0.0446449)
(-0.0204409 0.782509 -0.0937571)
(-0.0521773 0.821976 -0.0703363)
(-0.0367219 0.782806 0.0165675)
(0.053021 0.454852 0.11004)
(0.100097 -0.130418 0.0964936)
(0.0465532 -0.438151 0.0205902)
(-0.000487 -0.5307 0.0290477)
(-0.0093973 -0.518148 0.0337418)
(-0.0244783 -0.202439 -0.00242605)
(-0.0134334 0.135343 -0.00798488)
(0.0201702 0.0366568 0.0298681)
(0.000443211 -0.0581127 0.0191733)
(-0.0141674 0.00223983 -0.153083)
(0.00209815 -0.160242 -0.145986)
(-0.010458 -0.00284404 0.010174)
(-0.00702699 0.0361349 0.050443)
(0.00251389 0.0405735 0.0131368)
(0.00171933 -0.00884744 -0.000877694)
(-0.00205489 -0.0210596 0.00494796)
(-0.00316183 0.0141683 0.00637799)
(0.00076883 0.0401479 0.00383916)
(0.00506815 0.0144868 0.00135235)
(0.00194937 0.0231123 -0.00398821)
(-0.00245049 0.0422044 -0.00564419)
(-0.00449657 0.0796731 -0.00189528)
(-0.00452986 0.179659 0.0170577)
(0.00363661 0.202035 0.0440876)
(0.00680003 0.0906401 0.0386394)
(-0.00218632 -0.0368103 0.00755004)
(-0.00260628 -0.077165 0.00387597)
(0.00144341 -0.0526482 0.00968666)
(-0.0095952 0.014205 -0.00389873)
(-0.011562 0.0914901 -0.011222)
(0.010955 0.139541 -0.00758316)
(0.0122389 0.209862 -0.0206028)
(-0.00270662 0.0434772 -0.0205109)
(0.00745795 -0.18555 -0.006712)
(0.0137454 0.0098965 -0.054247)
(-0.00266041 0.265153 -0.0443952)
(-0.0146413 0.207383 -0.00907494)
(-0.0159737 0.112311 -0.0278424)
(-0.0225175 0.261135 -0.0390015)
(-0.0215778 0.546933 -0.0151757)
(0.0121248 0.525573 0.0330021)
(0.0324873 0.126155 0.04031)
(0.0035902 -0.160627 0.00889211)
(-0.0107529 -0.271636 0.0304381)
(0.00781933 -0.310979 0.0555456)
(0.0106489 -0.185789 0.027253)
(-0.000421075 0.0392004 -0.00358738)
(0.000283872 0.0325957 -0.00401161)
(-0.0069774 -0.111087 -0.0114498)
(-0.00837719 -0.0447361 -0.0761756)
(0.00951796 -0.0692408 -0.0806454)
(0.00621286 -0.0117762 -0.00884678)
(-0.00173272 0.0689236 0.0217616)
(0.00114295 0.0110477 0.00955802)
(-0.0005464 0.00390163 0.00104999)
(-0.0017769 0.00148487 0.00805954)
(-0.000752732 0.0118158 0.00427465)
(0.00105976 0.0205629 -0.00449293)
(0.00420423 0.00578626 0.0018471)
(0.00287405 -0.00267816 0.00867409)
(-0.00197538 0.0126668 0.0050215)
(-0.00324362 0.0160432 -0.00130685)
(-0.00187596 0.0319469 0.00157373)
(0.00368047 0.0355559 0.0236074)
(0.00250648 0.0106401 0.0321732)
(-0.00726976 0.010237 0.00633745)
(-0.00313069 0.00648836 0.0069803)
(0.00325725 0.00118243 0.0189216)
(-0.00716836 0.00104729 -0.0010812)
(-0.00849918 0.0308282 -0.0121044)
(0.0199227 0.0039477 0.000185186)
(0.0107102 0.0635152 -0.00443805)
(-0.0356463 0.0898086 -0.0162672)
(-0.00503981 -0.255538 -0.0341533)
(0.0416478 -0.210541 -0.101339)
(0.00626094 0.040762 -0.0788597)
(-0.0294618 -0.0546433 0.00505137)
(-0.0136045 -0.11497 0.0010284)
(0.00377025 0.00307075 -0.0180742)
(-0.00238035 0.170509 -0.0173784)
(0.00012 0.222761 0.0033213)
(0.0139215 0.0453936 0.0160583)
(-0.00301125 -0.0248881 -0.00397748)
(-0.0198409 0.0633982 0.0114322)
(0.00047435 0.0177303 0.0525279)
(0.0194335 -0.0541432 0.0393325)
(0.0148749 -0.0141919 0.00872086)
(0.00182395 0.0578854 0.0032257)
(-0.00928897 0.0316372 0.00337553)
(-0.00908526 0.0607928 -0.0358841)
(0.00580419 0.0331746 -0.045562)
(0.00657567 0.00173732 -0.000208995)
(-0.000466918 0.0228371 0.0145631)
(-0.000182415 -0.000464268 0.0071718)
(0.000520973 -0.00400444 0.00183848)
(-0.00089734 0.00419584 0.00409433)
(-0.000551928 0.00664192 0.00463919)
(-0.000165257 0.00766868 -0.00521891)
(0.00167376 -0.00220657 0.00130172)
(0.00288485 -0.0192947 0.0120726)
(0.00030672 -0.0122739 0.00900364)
(-0.00173636 0.00164022 0.000819923)
(-0.00188022 0.00934142 -0.00119942)
(0.00043794 0.0104678 0.00577701)
(0.00345019 -0.0215518 0.0155774)
(-0.00228097 -0.00232406 0.00878749)
(-0.00390921 0.0300391 -0.00145368)
(0.000439435 0.0119305 0.0126624)
(-0.00540292 0.00530875 0.00123075)
(-0.0114452 0.0532861 -0.0104699)
(0.0149242 0.0051142 0.00267731)
(0.025269 -0.0657741 -0.000286286)
(-0.0471165 0.125233 -0.00775531)
(-0.0362702 -0.0777418 -0.0282181)
(0.0552672 -0.257895 -0.0961247)
(0.0197842 -0.0592455 -0.0802236)
(-0.0364486 -0.0669048 0.0117018)
(-0.00756776 -0.00621317 0.00726455)
(0.0175499 0.0358576 -0.00963817)
(0.00936308 0.0448245 -0.0100239)
(-0.00538506 0.093444 -0.00746669)
(-0.00271046 0.0510469 0.00367942)
(0.00697459 -0.0304226 0.00631244)
(-0.00342052 0.0610919 0.00213708)
(-0.00903884 0.129902 0.0271096)
(0.00495145 0.0584258 0.0360177)
(0.0147853 -0.0223649 0.0145551)
(0.00699425 -0.0180712 0.00385006)
(-0.00630159 0.0106944 0.00669865)
(-0.00807322 0.0390841 -0.0127022)
(0.00105047 0.037369 -0.0330712)
(0.0046255 -0.00614918 -0.00343263)
(-0.000468397 0.00686809 0.0125642)
(-0.000518569 0.00263943 0.0039902)
(0.000113916 -0.00426026 0.000848204)
(-0.000106524 -0.000940643 0.00118913)
(-0.000198915 0.000982633 0.00213207)
(-0.000277257 0.0020987 -0.00368338)
(5.2082e-06 0.00207104 -0.000192225)
(0.00120705 -0.0081188 0.00824819)
(0.00125188 -0.0146487 0.00669206)
(0.000176675 -0.00701054 0.00188235)
(-0.00041479 0.000112914 -0.00174389)
(-0.00109492 0.00777317 -0.000683918)
(0.00029179 -0.00726049 0.00147932)
(0.000749252 -0.0191117 0.00046851)
(-0.000691125 0.00991002 -0.00141483)
(-0.00054243 0.00668126 -0.00122285)
(-0.00050839 0.0021125 -0.00355673)
(-0.00822553 0.0548469 -0.00481481)
(0.00074028 0.0651041 0.00580505)
(0.0290753 -0.073496 0.000151065)
(-0.0364359 0.019405 0.00403785)
(-0.0651951 0.094763 0.00676445)
(0.0432945 -0.161134 -0.0460827)
(0.0364609 -0.11858 -0.0502176)
(-0.0199611 -0.00617799 0.00937215)
(0.00277325 0.0877876 0.00611342)
(0.0107851 0.0535071 -0.00431914)
(0.00592953 0.00597395 -0.00123662)
(0.00172115 0.00705809 -0.00254418)
(-0.00484851 0.0468367 -0.00139123)
(-0.00238575 0.0238141 0.00195415)
(0.00498386 -0.00649405 0.00273405)
(0.00102078 0.0406911 0.00258552)
(-0.00425917 0.0599332 0.0147225)
(0.00222602 0.0140085 0.014633)
(0.00675764 -0.0369816 0.00417658)
(-0.00014142 -0.0214747 0.00508811)
(-0.00477639 0.0100487 -0.00150567)
(-0.00118721 0.0214398 -0.0182734)
(0.00173103 -0.00182536 -0.00886667)
(0.000473937 -0.00465708 0.00641621)
(-7.5037e-05 -0.000160766 0.00174282)
(-9.06743e-05 -0.000617459 -0.000417091)
(-2.1814e-05 -0.000876422 4.53597e-05)
(-3.3436e-05 5.1174e-05 0.000358984)
(4.51698e-05 9.79342e-05 -0.00253439)
(-1.92643e-05 0.00141249 -0.00141998)
(5.13945e-06 0.000366465 0.00354655)
(0.000411026 -0.00493038 0.00287446)
(0.000761276 -0.00646868 0.00186283)
(0.000667921 -0.00427543 -0.000223313)
(-0.000749692 -0.000176315 -0.00208386)
(-0.00113249 0.000208881 0.000578964)
(0.000540667 -0.00882165 -0.00049404)
(0.00046784 -0.00216901 -0.00192963)
(-0.000882863 -0.00237742 -0.00309782)
(0.00288649 -0.00842363 -0.00562644)
(-0.000273937 0.0116104 -0.00326307)
(-0.00704541 0.0547677 0.00684874)
(0.0165269 -0.0170499 0.00125204)
(-0.0174925 -0.0810134 0.00701803)
(-0.0662432 0.152647 0.0314712)
(0.0175428 0.0421323 -0.00134642)
(0.0463559 -0.0797778 -0.0316334)
(-0.00046689 0.0431464 -0.000374175)
(0.00226028 0.0634204 0.00486065)
(0.00330879 0.0218987 -0.00121585)
(0.00123555 0.00722739 -0.000678364)
(0.00134087 -0.00660668 0.000232518)
(0.000572002 -0.000452687 -0.000336785)
(-0.00179462 0.0215481 -1.06695e-05)
(-0.00121039 0.0125002 0.00140797)
(0.00204987 -0.00873007 0.000775342)
(0.001034 0.00573305 -0.000923285)
(-0.00161258 0.0174238 0.00469966)
(0.000537751 -0.00564795 0.00398586)
(0.00164907 -0.0211044 0.00269269)
(-0.000577065 -0.00343727 0.00162503)
(-0.000886047 0.00643925 -0.0056141)
(0.00015934 0.00213728 -0.00656854)
(0.000249276 -0.00342571 0.00053009)
(1.56729e-06 -0.000495996 0.000186839)
(-9.1311e-06 -2.27264e-05 -0.000443936)
(1.94873e-05 3.69675e-05 -0.000223761)
(-1.96513e-05 0.000124327 0.000105642)
(-3.62697e-05 0.000130924 -0.00114305)
(6.18882e-05 -0.000185841 -0.00106402)
(5.30172e-05 0.000261147 0.000704172)
(-3.88886e-05 -4.01682e-05 0.000488708)
(0.000248032 -0.00172582 0.0005063)
(0.000741434 -0.00366488 0.00103231)
(-0.000226665 -0.00311416 -0.0019363)
(-0.00130336 0.000113864 -0.000242766)
(0.000291492 -0.0022541 0.000985864)
(0.000487803 -0.00229975 -0.00107872)
(-0.0017681 -0.00194813 -0.001801)
(0.0019593 -0.00371536 -0.00290789)
(0.00368921 -0.0147902 -0.00293465)
(-0.00422976 0.00943681 0.00402392)
(0.00300271 0.0158833 0.00266306)
(-0.00418928 -0.0752023 0.00254328)
(-0.0402585 0.100531 0.0245498)
(-0.00089205 0.168367 0.00851639)
(0.0356381 -0.00957453 -0.0201737)
(0.0068858 0.0285717 -0.00338885)
(-0.00145732 0.0229906 0.00273138)
(0.000231992 0.00643695 0.000587665)
(0.000669771 0.00360932 -0.000280801)
(0.000212221 0.00208971 -2.85427e-05)
(0.000265135 -0.00224395 4.29495e-06)
(0.000164364 -0.000741148 -5.83876e-05)
(-0.000477565 0.00680553 0.000110733)
(-0.000450406 0.00541109 0.000853338)
(0.000464294 -0.00373554 -9.01507e-05)
(0.000329957 -0.000134056 -0.000413837)
(-0.000364457 0.00454083 0.000967279)
(0.000118406 -0.00269432 0.000821548)
(0.000340845 -0.00379864 0.00113733)
(-9.45672e-05 0.000478522 -0.0008615)
(-9.47097e-05 0.000798555 -0.00230273)
(3.39428e-05 -0.000376298 -0.00107336)
(-4.3044e-06 -8.25425e-05 -0.000370669)
(1.9468e-05 -1.63484e-05 -0.000407657)
(6.62402e-06 -1.53641e-05 -3.70971e-05)
(-1.39576e-05 -7.67499e-05 8.06372e-05)
(-1.54016e-05 6.01227e-05 -0.000365171)
(1.29118e-06 7.07546e-05 -0.000563075)
(3.25877e-05 -0.000218296 0.000149261)
(1.55452e-05 -0.000145203 4.90183e-05)
(7.9026e-06 -1.77106e-05 -0.0001105)
(0.000351324 -0.00127089 0.000582107)
(3.69456e-05 -0.00299501 -0.0007569)
(-0.000923355 1.95607e-05 -0.000922916)
(2.9399e-05 0.00124475 0.000621612)
(0.000533861 -0.00181352 -0.00041336)
(-0.001106 0.000393682 -0.00081813)
(0.000124839 0.00475663 -0.000725728)
(0.00224156 -0.00930175 -0.00168211)
(-0.000511521 -0.00853058 0.000705754)
(-0.000904977 0.0103877 0.00205054)
(-3.5888e-05 -0.0238188 -5.74653e-05)
(-0.0147359 0.0295971 0.00925513)
(-0.00504661 0.138049 0.00626942)
(0.016358 0.0213449 -0.00931231)
(0.00601697 0.00245663 -0.00281195)
(-0.00227973 0.0043935 0.0015127)
(-0.000684981 0.00316179 0.000558521)
(0.000326839 0.00112198 -1.0373e-05)
(0.000155432 0.000506426 -9.82789e-05)
(-2.61305e-05 0.000383585 -2.03275e-05)
(1.59138e-05 -0.000596994 5.79931e-06)
(8.26742e-05 -0.000346838 -4.71155e-05)
(-3.64134e-05 0.00158798 6.9391e-05)
(-0.000140889 0.00166848 0.000178731)
(2.76116e-05 -0.000562196 -8.20893e-05)
(6.16417e-05 0.000192437 1.33232e-05)
(-4.79219e-05 0.00110286 5.49849e-05)
(3.37397e-05 -0.000364255 0.000251186)
(5.48616e-05 -0.000419473 6.09896e-05)
(-4.52084e-06 9.93617e-05 -0.000420038)
(-1.6464e-05 1.02713e-05 -0.000434304)
(-4.36218e-06 2.59891e-05 -0.000149705)
(4.40208e-06 1.20159e-05 -0.000110652)
(5.98527e-06 -4.95222e-05 -4.37711e-06)
(-1.69928e-06 -1.13842e-05 1.54072e-06)
(-2.20217e-06 5.31826e-06 -0.000109664)
(-2.13624e-07 4.99265e-05 -0.000128543)
(2.08899e-06 1.22927e-08 -2.31353e-06)
(4.73352e-06 -8.1955e-05 4.97059e-05)
(-3.56151e-06 -5.98881e-05 -5.26583e-05)
(5.05697e-05 -0.000114438 9.31843e-05)
(6.29644e-05 -0.00145484 -0.000127505)
(-0.000301333 -0.000217112 -0.00049325)
(-0.00013159 0.00160598 1.08377e-05)
(0.00027396 -0.00059406 -8.9479e-05)
(-0.000222905 9.7076e-05 -0.000214945)
(-0.00023191 0.00384455 -5.64153e-05)
(0.000575538 -0.000723863 -0.000414805)
(0.000220883 -0.00478136 -0.000187705)
(-0.000347111 0.0017264 0.000669575)
(9.82677e-05 -0.00135964 4.29431e-05)
(-0.00314594 0.00192464 0.00167554)
(-0.00248788 0.0560562 0.002274)
(0.00433188 0.0192961 -0.0028135)
(0.00281194 -0.00659057 -0.0014598)
(-0.00119872 -0.00151157 0.000574516)
(-0.000476452 0.00129105 0.000199906)
(5.30919e-05 0.000583207 -3.28868e-05)
(3.67323e-05 1.24304e-05 -3.35131e-05)
(2.4321e-05 1.76366e-05 -3.71823e-06)
(3.493e-07 0.000129587 2.18635e-07)
(1.00622e-06 -4.6968e-05 -5.53808e-07)
(1.67184e-06 -0.000206605 -2.59617e-06)
(-1.06277e-06 0.000101869 3.96002e-06)
(-1.24129e-06 0.000366551 -5.54451e-06)
(3.23626e-07 -1.09806e-05 -2.36776e-07)
(-1.07595e-06 0.000115737 1.75421e-05)
(-1.22994e-06 0.000183443 1.33696e-05)
(3.80575e-06 -2.21574e-05 8.5636e-05)
(1.49271e-06 -3.80356e-05 -1.08015e-05)
(-5.50842e-06 -3.60941e-06 -7.93082e-05)
(-6.16185e-08 1.10098e-05 -6.74195e-05)
(5.57353e-07 1.52819e-05 -0.000141664)
(3.45439e-07 -5.02703e-06 9.15875e-05)
(-3.60269e-07 -6.66476e-06 1.83677e-05)
(-1.47579e-07 1.11451e-06 -1.72315e-05)
(8.69243e-09 1.40217e-06 -7.91225e-06)
(-5.52757e-09 1.90321e-06 1.65472e-06)
(4.2577e-07 -6.31115e-06 1.8866e-06)
(2.84894e-07 -1.54216e-05 -5.1975e-09)
(4.30805e-06 8.56302e-06 1.17947e-05)
(6.40486e-06 -0.000201023 1.28035e-06)
(-0.000157995 -0.000211149 -8.64672e-05)
(-5.60968e-05 0.00081738 -5.95066e-05)
(0.000151707 0.000217726 8.78815e-06)
(5.8457e-06 -0.000100195 -7.27618e-05)
(-6.07213e-05 0.00105555 -4.40295e-05)
(7.56231e-05 0.000725476 -6.42363e-05)
(7.68284e-05 -0.0010221 -0.000103497)
(-3.5097e-05 -2.29491e-06 9.53877e-05)
(3.9378e-06 0.000218514 5.26592e-05)
(-0.000370925 -0.000393254 0.000170513)
(-0.000601993 0.0115876 0.000303505)
(0.000619874 0.00829271 -0.000645622)
(0.000707721 -0.00400932 -0.000444529)
(-0.000254869 -0.00149419 9.14093e-05)
(-0.000138636 0.0003184 3.16701e-05)
(8.56213e-06 0.000134388 -2.08681e-05)
(1.44016e-05 9.07408e-05 -2.31981e-06)
(3.98686e-07 3.70327e-06 -1.06833e-07)
(1.22127e-08 1.2198e-06 -1.2083e-08)
(-5.21024e-09 2.42201e-06 2.11528e-09)
(-1.01977e-08 -2.49273e-06 2.20894e-08)
(5.1575e-09 -3.74717e-06 -3.30505e-08)
(7.95153e-09 1.42854e-06 6.92108e-08)
(-4.0256e-10 8.33361e-07 -3.28661e-07)
(-6.75527e-08 2.3488e-07 -1.15829e-08)
(-1.98043e-08 4.7776e-06 1.1111e-07)
(1.08376e-07 4.76343e-06 2.59407e-06)
(-1.15868e-07 -9.21809e-06 3.15922e-06)
(-2.41168e-07 -7.83199e-07 -1.81117e-06)
(-4.09785e-10 6.62526e-07 -1.38142e-06)
(1.43087e-09 6.55077e-07 -2.37662e-06)
(2.19603e-09 -1.19922e-06 2.8126e-06)
(-1.45025e-10 -4.98438e-07 9.09071e-07)
(-1.06111e-09 4.52078e-09 -7.55673e-07)
(-6.49409e-10 -5.70462e-09 -8.12164e-08)
(-2.13789e-09 -2.47828e-08 -2.36749e-08)
(-4.5313e-09 1.21168e-08 5.07508e-08)
(4.90978e-07 -1.44881e-06 -3.93405e-08)
(-1.77485e-07 -7.83762e-07 1.32998e-07)
(3.07681e-06 -1.59582e-05 -7.25545e-07)
(-1.14093e-05 -2.17063e-05 -4.25545e-06)
(-1.10662e-05 0.000506473 -1.6784e-06)
(1.20244e-05 0.000164259 3.01545e-08)
(4.10651e-06 6.04483e-06 -2.13363e-06)
(-2.56077e-06 0.00014445 -6.07174e-07)
(5.60186e-06 0.000207237 -3.07908e-07)
(1.80181e-05 -0.000107009 1.7214e-07)
(-8.19137e-06 -4.30771e-05 2.64482e-06)
(-8.95235e-06 9.04191e-06 2.39411e-06)
(-3.12967e-05 -5.95073e-05 4.16256e-05)
(-8.39803e-05 0.00123626 5.06022e-06)
(4.91279e-05 0.0019232 -0.000122535)
(0.000101197 -0.00081536 -9.21809e-05)
(-1.4361e-06 -0.000404504 4.66904e-06)
(-2.40932e-05 3.35883e-05 6.49773e-06)
(-1.04229e-05 4.81698e-05 -7.21901e-07)
(-6.29515e-08 1.32317e-06 -7.8317e-08)
(1.10612e-08 2.63758e-08 -4.9694e-09)
(8.15665e-10 -5.40261e-09 -1.79723e-10)
(6.63134e-11 -1.41786e-08 -1.18168e-11)
(4.47833e-11 1.20258e-08 -1.35773e-10)
(-1.55506e-11 1.99072e-08 1.85502e-10)
(-3.63751e-11 -5.21113e-09 -3.58051e-10)
(5.41236e-12 -6.67117e-09 9.82286e-10)
(-1.35654e-10 -3.86447e-09 2.07443e-10)
(-1.83548e-10 2.1899e-07 -8.2741e-11)
(7.1636e-10 6.22441e-08 3.0472e-08)
(-3.8272e-10 -1.42875e-07 -3.01101e-07)
(-1.0825e-09 4.49265e-07 -5.78389e-07)
(2.10867e-11 1.54766e-09 -1.3154e-08)
(2.8945e-12 2.95904e-09 -2.17384e-08)
(-1.26846e-11 -2.78245e-09 1.05199e-08)
(2.39246e-11 -3.69101e-09 3.66356e-09)
(-6.20202e-12 -2.3362e-09 -3.00945e-09)
(-1.87118e-11 -4.81549e-10 -2.71523e-10)
(8.14927e-12 -3.7626e-10 3.904e-11)
(-1.10554e-11 5.99187e-09 3.07087e-11)
(5.6649e-10 1.33367e-08 3.17068e-10)
(-1.97241e-08 -1.48e-06 -8.4224e-10)
(-1.61764e-07 5.44844e-07 -3.80946e-09)
(-6.17794e-07 -1.08409e-05 -3.81343e-08)
(6.65362e-07 3.48911e-05 -2.96663e-08)
(8.82323e-07 2.28526e-05 9.80651e-09)
(-5.17918e-07 -1.23076e-06 -1.37318e-08)
(-2.91571e-07 1.02691e-05 -3.4048e-09)
(-1.81861e-07 6.42621e-06 -4.76605e-09)
(2.37803e-07 -6.73585e-06 6.53508e-09)
(4.49364e-07 -4.80494e-05 -1.58614e-08)
(-1.52042e-07 1.81781e-05 5.98855e-08)
(-7.4902e-07 -2.09907e-05 1.41186e-07)
(-7.47907e-07 0.000112691 -8.57158e-07)
(1.33527e-06 0.000232983 -3.96794e-06)
(1.68837e-06 -3.56093e-05 -2.02418e-07)
(-7.13672e-07 -7.28201e-05 1.91924e-06)
(-9.77581e-07 -3.14783e-05 4.97849e-07)
(-1.26347e-07 -1.87485e-07 8.91575e-10)
(-1.86146e-09 3.3646e-08 -1.62153e-09)
(9.32066e-12 2.52648e-09 -9.21442e-11)
(-2.02217e-12 1.68504e-10 -2.98841e-12)
(-2.46196e-13 5.70236e-11 -3.82137e-14)
(-1.24025e-13 -3.22916e-11 4.00519e-13)
(2.65728e-14 -7.85738e-11 -3.70539e-13)
(1.36096e-13 1.4786e-11 8.65434e-13)
(-2.11948e-14 3.15878e-11 -1.45995e-12)
(-1.72386e-13 -1.59607e-12 -3.26859e-12)
(-1.07995e-12 4.42143e-10 6.72503e-12)
(4.0121e-12 5.53669e-10 1.02612e-10)
(1.86978e-12 -1.72505e-09 -1.22241e-09)
(-1.29826e-11 1.71277e-09 -6.81385e-09)
(-4.60652e-14 2.48999e-11 -1.07263e-10)
(7.53005e-14 -5.99693e-11 -1.02636e-10)
(2.81687e-13 1.69817e-11 1.24353e-11)
(1.64773e-13 -2.51047e-11 5.88443e-11)
(-2.48338e-13 -4.85839e-11 2.67775e-11)
(-1.61668e-13 -8.16939e-12 1.9663e-12)
(-4.87036e-14 2.68927e-12 3.11159e-13)
(6.86117e-14 -3.0527e-11 2.44852e-13)
(1.25485e-12 3.30216e-11 -7.83311e-14)
(-4.0557e-11 -1.58366e-09 3.27635e-12)
(-5.84068e-10 5.41111e-08 9.92881e-12)
(-4.69812e-09 4.41854e-07 -3.23149e-10)
(2.80568e-09 1.74695e-06 -3.8143e-10)
(8.76657e-09 -1.382e-06 1.10051e-10)
(-2.17386e-09 -6.70154e-07 -5.38832e-11)
(-4.11794e-09 3.76997e-08 -2.87028e-11)
(1.18104e-09 1.28254e-07 -7.11802e-12)
(-1.32364e-09 5.367e-07 -7.61806e-12)
(-3.17721e-09 -5.24184e-07 3.11033e-10)
(1.39658e-09 -6.96358e-07 -1.22783e-09)
(-2.43801e-09 -1.06908e-07 3.41021e-10)
(-5.74137e-09 1.35699e-06 -1.09967e-08)
(9.56325e-09 1.94251e-06 -3.56741e-08)
(1.21842e-08 -2.30215e-06 -4.85987e-09)
(-4.6906e-09 -2.68417e-06 2.14816e-08)
(-6.42287e-09 -3.46319e-07 2.26379e-09)
(-4.8793e-10 -5.10944e-09 -3.5598e-10)
(-2.90834e-12 2.48051e-11 -3.38306e-11)
(4.78356e-13 -5.6726e-12 -1.47708e-12)
(2.94434e-14 -6.36518e-13 -3.8431e-14)
(2.02217e-16 -1.19891e-13 -3.79084e-16)
(-2.2993e-15 3.96994e-14 -7.33519e-15)
(-2.49232e-16 2.15953e-13 -2.5254e-16)
(6.63713e-15 -3.43192e-14 5.72979e-15)
(2.46906e-15 -1.4802e-13 4.6589e-15)
(-4.18638e-15 2.09028e-14 4.30195e-15)
(-5.24862e-15 3.21332e-13 8.30986e-14)
(1.22553e-14 2.98629e-12 -5.94614e-14)
(3.78588e-14 -1.06791e-11 -2.6818e-12)
(-8.66255e-14 -2.13172e-12 -3.189e-11)
(-3.25826e-16 1.83472e-13 -4.97826e-13)
(-1.08294e-16 2.78971e-14 -8.64456e-13)
(3.11679e-15 -2.08715e-15 9.63091e-14)
(-3.7088e-16 -6.69194e-13 8.12774e-13)
(-3.25151e-15 -4.09542e-13 2.15262e-13)
(9.98256e-16 -5.46126e-14 1.15681e-14)
(9.20144e-16 -1.03566e-14 -2.29087e-15)
(-7.9138e-16 6.69325e-14 -1.79021e-15)
(-2.91803e-16 -1.8102e-13 -3.80417e-15)
(5.37776e-14 -3.05073e-12 -8.49594e-15)
(-3.6488e-12 1.00589e-10 6.47343e-14)
(-3.83888e-11 1.44709e-09 -2.39521e-12)
(1.74204e-12 1.17626e-08 -4.19731e-12)
(7.37399e-11 -5.52298e-09 7.15755e-13)
(2.18391e-12 -9.99814e-09 -3.97025e-14)
(-3.61194e-11 -1.2166e-10 -2.98451e-13)
(-4.83581e-12 2.23317e-10 -1.78978e-13)
(6.84935e-12 -3.05681e-09 5.64409e-13)
(1.0491e-11 3.51328e-09 -2.05761e-12)
(-8.5218e-12 4.83886e-09 5.1864e-12)
(-7.71963e-12 4.1747e-11 -4.04639e-13)
(-1.9223e-11 1.0894e-08 -7.24571e-12)
(1.42167e-11 1.43009e-08 -2.59472e-10)
(4.39408e-11 -1.28611e-08 -5.66348e-11)
(-1.07816e-11 -1.59587e-08 5.77639e-11)
(-2.23022e-11 -1.21063e-09 -3.94035e-11)
(-1.64634e-12 -7.14339e-12 -7.53751e-12)
(-2.8235e-14 1.19015e-12 -4.28807e-13)
(-2.20065e-15 7.76772e-14 -8.0682e-15)
(-6.9428e-17 5.37795e-16 -8.34186e-17)
(4.16577e-16 2.91434e-16 6.97943e-16)
(-1.47707e-15 1.01306e-15 -2.60997e-15)
(-4.36812e-16 7.54361e-15 8.94672e-17)
(3.02843e-15 -9.29033e-16 2.77843e-15)
(-1.42343e-15 -1.48746e-14 -5.54067e-15)
(-9.2298e-16 -1.2657e-14 5.86062e-15)
(2.11058e-15 2.40789e-15 3.4079e-15)
(-5.65843e-16 1.03107e-14 -2.55444e-15)
(-1.5277e-16 -3.09255e-14 -4.97146e-15)
(-9.71785e-17 -8.56725e-14 -8.41135e-14)
(-3.53579e-16 -2.96676e-16 -1.68337e-15)
(6.83559e-16 7.03141e-16 -4.83341e-15)
(8.82877e-16 1.91644e-15 -1.7335e-15)
(8.81704e-16 -1.72962e-15 3.71045e-15)
(-7.17213e-16 1.51062e-15 4.13119e-15)
(-1.19345e-15 -3.0269e-15 2.80983e-15)
(1.48287e-16 -2.1126e-15 -7.05671e-16)
(-1.0716e-17 -1.20792e-15 6.21284e-16)
(-5.05038e-17 -1.84326e-18 3.14314e-16)
(-1.18732e-17 5.58256e-16 -3.82055e-16)
(-1.31811e-14 -1.21349e-13 1.00025e-16)
(-3.31466e-13 8.2071e-12 -1.49219e-14)
(-9.66433e-14 8.62018e-11 -4.11529e-14)
(5.22741e-13 4.26816e-12 1.6046e-15)
(8.92704e-14 -7.96403e-11 -2.16289e-15)
(-2.02539e-13 -6.26735e-13 -4.57588e-15)
(3.2352e-14 1.60674e-12 5.21235e-17)
(-4.3197e-15 1.02587e-11 -2.52172e-15)
(-1.90268e-14 -1.38088e-11 1.99832e-15)
(1.93112e-14 -1.33532e-11 -2.67824e-15)
(3.02128e-14 5.37348e-12 1.61876e-15)
(4.10372e-14 4.02866e-12 -3.2109e-14)
(-3.44014e-14 4.86492e-11 -7.2674e-13)
(-1.15426e-13 -2.79761e-11 -5.25791e-14)
(3.405e-15 -5.02784e-11 -9.90657e-13)
(7.16682e-14 -3.71048e-12 -7.21777e-13)
(8.10318e-15 -6.75771e-14 -7.01006e-14)
(1.0511e-15 -1.71988e-15 -1.03654e-15)
(-3.12275e-16 4.52187e-15 -2.77544e-15)
(-1.87598e-15 3.14058e-16 -1.36082e-15)
(3.91129e-16 -9.14774e-16 2.20489e-15)
(8.3755e-16 1.64149e-15 1.00662e-15)
(-1.09265e-15 3.80726e-15 -5.86064e-16)
(-2.94884e-15 1.88638e-15 -4.39372e-15)
(-2.33767e-15 -4.7927e-15 -7.94963e-16)
(3.1536e-15 1.6588e-15 -1.69814e-15)
(4.19213e-15 1.41674e-15 -3.24105e-16)
(-1.22408e-15 3.50937e-15 -9.89975e-16)
(-8.41243e-16 -8.49721e-16 -1.54924e-15)
(-3.49764e-16 9.10162e-16 -1.67149e-15)
(-4.24475e-16 6.71575e-16 2.8382e-15)
(8.94887e-16 3.52024e-16 -2.92234e-15)
(2.15559e-15 2.45959e-15 -4.28581e-15)
(-6.99942e-16 9.69157e-16 4.0918e-15)
(-4.15084e-15 -3.33874e-15 3.2307e-15)
(-5.51165e-16 -1.45809e-15 -1.49123e-15)
(1.89236e-15 1.32026e-16 7.68426e-16)
(1.62763e-16 -2.58046e-15 1.72198e-15)
(5.49342e-16 9.64876e-16 -3.15652e-16)
(-1.51418e-16 -1.26616e-16 -1.91833e-16)
(-1.45104e-15 9.708e-16 1.9285e-15)
(-3.87665e-15 2.24928e-14 3.0954e-15)
(1.13419e-15 6.73038e-13 6.68084e-15)
(6.22802e-15 2.25995e-13 -5.7108e-15)
(7.3828e-16 -3.89946e-13 2.17208e-16)
(-1.75117e-15 4.32185e-14 -4.48232e-15)
(-2.59375e-15 1.99317e-14 4.43805e-16)
(5.62234e-16 -2.54132e-14 3.50197e-15)
(2.0584e-15 3.05335e-14 1.48991e-15)
(-8.49847e-16 1.45464e-14 1.23413e-16)
(4.84128e-16 -7.608e-15 -3.41849e-16)
(1.02924e-15 -4.64976e-14 -2.8844e-16)
(-8.4848e-17 -9.05282e-14 2.76327e-15)
(-3.04313e-15 2.34885e-14 2.93858e-15)
(-5.44472e-16 1.42872e-13 -1.37856e-14)
(1.89775e-16 1.83174e-14 -5.33196e-15)
(8.08801e-16 -6.18851e-16 3.92047e-16)
(4.08451e-15 -1.0882e-15 -1.00668e-15)
(-1.39918e-15 -4.53839e-15 -3.53658e-15)
(-2.5482e-15 1.47891e-15 -6.69226e-16)
(1.07024e-15 -5.72776e-16 1.01711e-15)
(5.9849e-16 -7.56009e-16 1.01475e-15)
(-2.48626e-16 -1.47994e-15 2.58134e-16)
(-5.68757e-16 6.11726e-15 8.19323e-16)
(-1.44013e-15 1.98162e-15 2.00372e-15)
(1.69913e-15 5.90878e-15 3.08282e-15)
(2.80207e-15 -5.58565e-15 -4.62941e-15)
(-1.60906e-15 4.82412e-15 -7.04452e-16)
(-1.35604e-15 -6.58399e-16 -1.11615e-16)
(2.00276e-16 -1.55311e-15 -1.21542e-15)
(6.8512e-16 3.42996e-16 3.4395e-17)
(1.62956e-15 9.24608e-16 -6.95232e-15)
(1.08483e-15 -9.03559e-16 -3.15908e-15)
(-2.09301e-15 -2.02638e-15 6.65598e-15)
(-1.67474e-15 2.78773e-16 1.5696e-15)
(6.18766e-16 4.62672e-15 6.5099e-16)
(-6.40365e-16 7.47349e-16 -9.1013e-16)
(4.22137e-16 1.39575e-15 7.17737e-16)
(1.21561e-15 8.10418e-16 2.80127e-15)
(5.82e-18 5.5188e-17 -2.36734e-16)
(-2.1539e-15 -2.15309e-16 1.07713e-15)
(-1.65229e-15 2.24521e-15 -1.4712e-16)
(3.37135e-15 1.43816e-14 -2.84962e-17)
(9.1838e-16 1.46325e-15 1.22016e-15)
(-4.84315e-16 -3.96198e-15 3.4769e-16)
(-1.49704e-15 1.19732e-15 2.30096e-15)
(-1.17378e-15 -2.56339e-15 8.6929e-16)
(9.12745e-16 4.23166e-15 -1.58423e-16)
(4.16292e-16 -2.2338e-15 2.59821e-16)
(7.56326e-16 4.19947e-17 2.16956e-16)
(2.53008e-16 -1.4852e-16 -1.2153e-17)
(3.01914e-16 -5.05029e-16 1.02557e-16)
(-7.70222e-17 -1.51449e-15 -1.49219e-16)
(-7.42107e-16 -6.44626e-16 -4.85595e-16)
(1.01565e-15 1.93213e-15 7.30074e-16)
(1.41018e-15 -1.82195e-15 1.89796e-15)
(-1.64476e-15 3.77911e-15 1.98334e-15)
(-1.38564e-15 -1.50988e-15 1.05952e-15)
(1.19025e-15 -2.6814e-15 1.70046e-15)
(3.40582e-16 -1.88134e-15 -2.59486e-15)
(-8.89237e-16 -1.49178e-15 -9.70138e-16)
(3.71278e-16 -1.17541e-16 2.61926e-15)
(2.54056e-15 -1.73277e-15 -1.37356e-16)
(-1.32202e-15 -1.09607e-15 -3.1544e-15)
(-2.54371e-15 4.57225e-15 -1.6458e-15)
(-7.91935e-16 2.22047e-15 -1.47583e-16)
(3.74926e-15 -3.45215e-15 -3.83312e-15)
(1.48324e-15 -4.06354e-15 3.63934e-16)
(-4.2401e-15 2.24808e-15 3.96367e-15)
(3.13113e-16 4.8384e-16 -1.65983e-15)
(-2.76286e-16 7.98932e-19 -1.64843e-15)
(7.3743e-17 2.69285e-16 3.57238e-15)
(5.03396e-16 -2.4309e-15 -2.01305e-15)
(1.51177e-16 -1.17435e-15 3.77088e-15)
(-4.32347e-16 1.28156e-15 -1.55341e-15)
(-3.92623e-16 1.07075e-15 9.16923e-16)
(2.24634e-16 -7.413e-16 -4.48149e-17)
(1.73524e-16 3.36336e-15 -3.13762e-15)
(-3.20872e-16 -8.97054e-16 7.07394e-16)
(-7.80661e-16 -8.39443e-16 1.32653e-15)
(-6.94288e-17 -2.02809e-15 8.53065e-16)
(4.6148e-15 3.8232e-15 -3.88087e-15)
(4.34682e-16 2.17936e-15 -2.83218e-15)
(-4.18195e-15 -1.69296e-15 9.6721e-16)
(7.06297e-16 3.6739e-16 -3.96529e-16)
(-9.41827e-16 -9.96364e-16 -1.0883e-15)
(-9.28004e-16 2.41567e-15 3.27073e-15)
(7.22792e-16 7.02223e-16 4.59683e-15)
(-2.74654e-16 2.48088e-15 3.34143e-16)
(2.29464e-16 5.70091e-16 -9.33594e-16)
(1.81248e-16 -9.12951e-17 -1.08502e-15)
(2.88516e-16 2.07572e-16 4.90121e-16)
(-1.69076e-16 -4.35676e-16 1.95802e-15)
(-1.22249e-15 -2.44267e-15 -2.34277e-15)
(-1.40994e-15 -4.73332e-16 -5.11747e-16)