/*--------------------------------*- C++ -*----------------------------------*\
| =========                 |                                                 |
| \\      /  F ield         | OpenFOAM: The Open Source CFD Toolbox           |
|  \\    /   O peration     | Version:  5.0                                   |
|   \\  /    A nd           | Web:      www.OpenFOAM.org                      |
|    \\/     M anipulation  |                                                 |
\*---------------------------------------------------------------------------*/
FoamFile
{
    version     2.0;
    format      ascii;
    class       volScalarField;
    location    "50.4676134421789371";
    object      MDu;
}
// * * * * * * * * * * * * * * * * * * * * * * * * * * * * * * * * * * * * * //

dimensions      [0 -1 -1 1 0 0 0];

internalField   nonuniform List<scalar> 
60000
(
-35.2708
1.10052
28.8387
36.123
25.3321
7.07498
-8.73907
-23.6522
-45.4551
-66.0917
-69.6542
-52.1765
-29.0099
-19.643
-25.931
-35.788
-42.8384
-51.9417
-66.7457
-91.4813
-127.465
-174.166
-212.419
-243.929
-288.356
-333.459
-349.65
-310.465
-215.742
-120.02
-86.7605
-104.877
-130.496
-131.28
-86.1369
-17.0692
4.85346
-24.418
-55.0101
-58.6495
26.1301
-17.5604
-49.522
-55.2372
-34.8064
-6.25703
13.4558
29.8369
55.1774
74.7283
71.0357
46.8023
24.1929
20.4485
29.1861
35.5996
38.262
50.7226
78.2606
119.629
171.87
227.685
264.499
296.366
351.209
410.104
429.965
374.165
250.709
139.458
113.672
143.152
171.338
162.52
94.4446
7.77987
-4.01836
40.4167
68.9723
60.382
29.3211
23.9081
17.8359
10.2575
-1.22571
-8.23918
-6.39718
-2.47502
2.60274
14.1654
25.0361
25.4014
13.8069
1.53864
1.28167
12.028
21.7868
20.3498
9.60189
-2.27699
-11.1656
-3.6485
16.9821
33.8982
42.7718
47.1938
52.478
59.4225
55.5889
31.8486
4.70015
-2.87018
7.66682
26.4549
40.6345
29.2878
-2.09088
-11.3978
7.11245
25.3215
-16.1143
-6.49379
0.443988
4.27394
4.63216
0.522147
-5.06076
-9.09025
-15.3111
-22.2283
-23.7105
-19.5182
-13.2758
-10.0416
-11.4652
-15.0663
-18.0598
-21.7432
-26.7237
-30.2741
-35.1023
-45.5891
-55.1969
-67.1158
-84.9687
-102.407
-110.834
-103.253
-79.8217
-53.5021
-40.4193
-42.9727
-50.7728
-53.9566
-42.6282
-19.7237
-6.16687
-11.9224
-22.598
-23.251
-5.61182
-2.75866
-0.192695
1.13459
2.25556
2.91552
2.09351
0.186344
-1.83473
-4.72168
-6.674
-5.57185
-2.17396
1.03488
0.821551
-2.3442
-4.62378
-3.71422
-2.92383
-2.90749
-1.8693
-6.13173
-12.6177
-16.7347
-19.1739
-19.8746
-19.8013
-17.8364
-11.7229
-4.41248
-0.172136
0.56356
-1.92307
-5.54773
-7.09221
-2.4717
3.13664
3.39934
-1.47603
-5.91629
-0.675556
-0.379245
0.173444
0.489003
0.593376
0.760843
0.90638
0.665775
0.248113
-0.203027
-0.743716
-0.697136
-0.217628
0.478828
0.670205
-0.189941
-0.950678
-0.313625
0.268782
-1.43607
-0.353831
0.503493
-2.18156
-4.05995
-2.8959
-1.49762
-1.27704
-1.709
-1.03675
1.22869
2.13725
1.81903
1.83467
1.86241
1.11255
0.647118
1.36201
1.51903
0.996271
-0.128535
-0.0108245
-0.0469762
-0.0634915
-0.0692647
-0.0916917
-0.116814
-0.0198297
0.115544
0.122289
0.087696
-0.0308672
-0.060618
0.0260268
-0.161673
-0.295232
-0.301884
-0.402711
-0.348552
0.479025
-0.586112
-1.72329
0.290827
-0.123822
-0.768594
0.188799
0.287376
0.176987
-0.0107293
-0.424617
-0.0409
0.718382
0.351075
-0.157663
0.0655076
0.531046
0.388906
0.168484
0.0355361
0.0833753
0.12959
0.0248584
0.0247497
0.0211864
-0.00487096
-0.0370503
-0.090615
-0.129119
-0.0829848
-0.0205985
0.00403961
0.00204478
-0.0256161
0.0385796
0.00696853
-0.106005
-0.00400465
0.0688552
-0.194817
0.143063
0.502207
-1.01826
-0.0886292
0.720443
0.654381
0.445085
0.115705
0.0327441
0.0865652
0.00300687
-0.221591
-0.0923959
0.192688
0.00269663
-0.291391
-0.190161
0.0760826
0.049279
-0.0453025
-0.0905482
-0.0137794
-0.00174238
0.00591991
0.0107648
0.0103535
0.00759822
0.00458306
-0.0190919
-0.0396224
-0.0320519
-0.0190345
-0.0192324
-0.0267975
0.00251101
0.0158429
0.00492061
0.0992844
0.177623
0.0292753
-0.0556832
0.596686
0.256866
-0.058955
0.620041
0.559824
0.153026
0.0256695
-0.00497298
-0.00138948
0.0364028
0.000253566
-0.0961717
-0.0682837
0.0524584
0.00452026
-0.116982
-0.0725158
0.000701583
-0.0151626
-0.0285205
-0.0219218
-0.00392529
-0.00307716
-0.00233917
0.00013591
0.00233213
0.0045279
0.0073019
0.00241837
-0.0060178
-0.00538987
-0.00106367
-0.00895357
-0.00219493
0.00904065
0.0117102
0.036946
0.0679036
0.0734945
-0.0155944
0.202731
0.548905
0.00383388
0.150642
0.202241
0.0378562
0.00570598
0.00582664
-0.00351311
-0.0030921
0.00856176
0.000229082
-0.0277745
-0.0262946
0.0075564
-0.000647008
-0.0261344
-0.0154575
-0.0072852
-0.00764643
-0.00592465
-0.00134175
-0.00219933
-0.00232501
-0.000770038
0.000586835
0.000468988
0.000520945
0.00130028
0.000578954
-0.00111461
0.00449035
0.00739425
0.00127869
0.00535163
0.0139749
0.00716853
0.00204507
0.0267574
0.0122177
0.0174142
0.23269
0.0210398
-0.080739
0.00944962
0.00227505
0.00183016
0.000743621
0.00124222
-0.000836928
-0.000543451
0.00198199
0.000939132
-0.00478057
-0.0050091
0.000349285
-0.00115657
-0.00424325
-0.00313843
-0.0021804
-0.00161218
-0.000164587
-0.000898439
-0.000913596
-0.000170407
0.000126214
6.6186e-05
8.79005e-05
5.21339e-06
0.000256852
7.37893e-05
0.000908028
0.00503272
0.00212604
0.00155543
0.00695082
0.0030593
-0.00407072
0.00326636
0.0047004
-0.000266176
0.0369483
0.0144952
-0.0712853
-0.0328136
-0.00422777
0.000762341
0.000540597
4.11462e-05
0.000348929
-5.33975e-05
-7.8349e-05
0.00013235
0.000738109
-0.000201063
-0.000394679
3.86524e-06
-0.000395901
-0.000553627
-0.000461263
-0.000228254
-7.80519e-06
-6.88989e-05
-8.80063e-05
-1.09564e-05
3.63504e-06
2.60976e-06
3.22237e-06
-7.04877e-07
1.00009e-05
2.34725e-05
1.97267e-05
0.00148198
0.000794475
-5.97193e-05
0.00132568
0.00155963
-0.000691116
-0.000570142
0.000875219
-0.000152343
0.00234942
0.00389281
-0.0206497
-0.0149956
-0.0014991
0.000282206
0.000164186
1.09288e-05
3.2001e-07
2.97229e-06
-4.66517e-06
-4.44785e-06
2.35059e-06
6.95925e-06
-1.50742e-06
-1.4143e-07
-6.64009e-07
-1.74428e-05
-1.08192e-05
5.25466e-06
-5.35323e-07
-2.39749e-06
-2.21125e-06
-2.00963e-07
-3.01841e-08
-3.71109e-09
-2.56032e-08
1.49285e-07
-8.07575e-08
4.49285e-06
-6.84786e-06
0.000293783
9.68715e-05
-0.000516366
-5.02625e-05
0.000282069
2.8685e-05
-0.000108455
0.000184536
-9.2294e-05
0.000256779
0.000666985
-0.00269238
-0.00248736
-0.000447791
-9.54064e-05
-1.8052e-07
2.85008e-08
-1.41832e-09
-1.50956e-08
1.65486e-08
1.90066e-08
-1.02532e-08
-3.49043e-08
5.27144e-09
-7.76889e-11
3.01356e-08
-6.99816e-07
-1.17229e-07
-3.04565e-08
-4.27063e-09
2.85336e-09
1.49522e-08
-1.89664e-09
-1.13541e-09
-1.27709e-10
-2.04318e-11
8.73386e-10
-3.38645e-09
-2.31577e-07
3.56417e-06
9.23179e-06
2.92677e-05
-5.41128e-05
-1.55511e-05
9.10261e-07
-8.0719e-06
-1.15929e-05
1.09374e-05
0.00011301
2.42651e-05
0.000136156
-0.000190498
-0.000202594
-0.000218651
-8.53889e-06
-1.45977e-07
2.36567e-09
2.97726e-10
6.15945e-11
-2.96313e-11
-4.60811e-11
2.61359e-11
1.35737e-10
-1.2561e-11
-9.58181e-12
5.56925e-11
-1.19661e-09
-1.14134e-09
2.99354e-09
-1.25556e-11
-9.83198e-11
-2.82017e-11
-6.97354e-11
-1.37592e-11
-1.10735e-12
3.38989e-13
-5.10061e-12
2.13352e-11
1.49227e-10
2.51691e-09
1.59365e-07
-2.91515e-06
-4.0775e-06
-3.42056e-07
-3.47615e-09
-1.15432e-09
-4.02538e-07
-1.44316e-06
7.52963e-07
1.76201e-07
6.9434e-07
-1.01622e-05
-9.19902e-06
-1.16651e-06
-2.37438e-08
-2.02675e-11
-9.49154e-12
-1.16391e-12
-9.65747e-14
2.88713e-14
7.53606e-14
-4.66956e-14
-3.61157e-13
3.22138e-14
7.46126e-14
9.45269e-15
-1.12451e-12
-5.82764e-12
1.86297e-11
8.86507e-14
-1.41299e-12
-2.80175e-12
-1.05958e-12
-1.20983e-13
-1.9239e-14
-2.22671e-17
1.01957e-14
-3.2815e-14
1.17497e-13
-4.29044e-12
5.31439e-10
-1.22158e-08
-3.13219e-08
-3.98851e-09
-2.43814e-11
3.39598e-11
-3.31718e-10
4.98847e-09
-4.10077e-09
-3.52495e-09
1.54465e-10
-2.08902e-08
-3.17075e-08
-3.17748e-09
-7.34817e-11
-6.93159e-13
5.80476e-15
-4.6279e-15
1.20409e-15
2.06452e-14
-4.03493e-15
1.52991e-15
-3.00935e-14
-3.50321e-15
4.00199e-14
3.08635e-14
-1.53786e-14
-2.01167e-14
4.81265e-14
-7.95458e-15
-5.12283e-15
-3.22787e-15
-1.5398e-14
-1.12009e-14
-1.29117e-14
5.4559e-15
-4.41837e-15
5.41601e-15
1.85976e-16
-1.53809e-14
1.59734e-12
-4.05951e-11
-1.97375e-10
-2.94292e-11
8.61428e-13
2.65177e-13
6.53023e-13
-1.10308e-11
7.68059e-12
5.40271e-12
-8.62011e-13
1.92824e-11
3.77196e-11
8.29824e-12
3.42418e-13
-3.33083e-14
1.37124e-14
7.92069e-15
-1.38973e-14
-3.1572e-15
-3.89283e-15
6.96578e-15
2.38703e-15
1.3214e-14
-2.24267e-14
3.22059e-14
-2.38734e-14
-8.34468e-15
4.88732e-15
-9.92733e-15
5.07789e-16
1.07709e-15
-2.08135e-14
-8.93817e-15
4.71123e-15
9.90834e-16
2.58789e-15
9.41062e-16
3.69545e-16
-1.08262e-14
-6.39028e-15
-7.95777e-14
-1.13654e-12
-1.57513e-13
1.16785e-14
-1.62578e-14
-4.00228e-15
2.90468e-14
-1.16483e-14
-4.55624e-15
-6.744e-15
2.19487e-13
7.45063e-13
1.37503e-13
-1.45383e-16
-7.62583e-15
-4.15915e-15
-3.92518e-15
1.61047e-14
-1.14113e-14
-2.26507e-15
6.87556e-15
-1.56765e-14
-1.05233e-14
-1.28192e-14
1.41105e-14
1.79066e-14
-7.89706e-15
1.37859e-14
1.47532e-15
-7.12799e-15
-4.16263e-15
5.2649e-15
2.54057e-15
3.31175e-17
5.64439e-17
1.67307e-15
3.57104e-15
-6.25847e-16
-1.10016e-14
2.00882e-14
-2.00663e-14
-2.39232e-14
1.97103e-15
-8.80185e-15
-2.44809e-15
3.09804e-16
-2.4089e-15
9.92246e-16
-8.32182e-16
-2.99548e-15
6.0104e-16
-1.61809e-15
-1.38334e-14
1.99345e-14
1.37574e-14
-2.95389e-15
-3.00694e-15
-9.41467e-15
4.38608e-15
4.09413e-15
-1.0927e-14
1.7747e-14
5.83837e-15
2.06693e-15
-1.6469e-14
1.19642e-14
9.01001e-15
3.7866e-15
-5.1569e-15
4.30965e-15
-6.32338e-15
4.18857e-15
4.68711e-15
-1.51729e-15
-4.53227e-15
-1.06224e-15
-4.55529e-15
-3.6024e-15
1.05278e-14
6.97725e-15
-5.95305e-17
2.80657e-15
5.98579e-15
3.65496e-15
4.76634e-15
3.35907e-15
-6.289e-17
-5.09061e-15
-4.34735e-15
4.5846e-15
-7.20326e-15
-4.77349e-15
2.28648e-15
1.87393e-15
-5.11955e-15
-1.9183e-15
-8.57911e-15
-2.43384e-14
2.33544e-15
6.83122e-15
-3.32282e-15
5.75916e-15
2.14814e-14
-6.98625e-16
-1.55682e-15
-8.72826e-15
-5.58353e-16
-1.098e-14
-2.24029e-15
4.53803e-15
-2.60424e-15
2.70219e-15
1.22025e-15
6.57876e-16
3.52106e-15
-5.20981e-15
-9.78827e-16
2.97851e-15
5.24962e-15
-8.95794e-15
-1.59542e-15
-3.87844e-16
-4.65259e-15
-1.34934e-15
-1.11762e-15
3.99549e-15
-1.23334e-15
-1.57577e-15
5.71175e-16
-3.68192e-15
-1.68267e-15
2.59522e-15
-5.03394e-15
-2.56185e-15
2.55591e-15
-3.42647e-15
1.62372e-15
6.44307e-15
-2.88909e-15
-6.38441e-15
3.37654e-15
-5.55969e-15
-5.41417e-15
4.59006e-15
-6.07981e-16
-3.89839e-16
1.17466e-15
4.43871e-15
-1.42705e-15
-5.03374e-15
-1.78893e-15
2.48463e-15
-2.85078e-15
3.53936e-16
-5.54858e-15
-3.54405e-15
3.94995e-15
3.06783e-15
-5.83413e-15
-2.83197e-15
1.08761e-15
2.95864e-15
-2.17695e-16
-1.43118e-14
-3.82652e-15
3.09015e-15
-1.22037e-15
-3.12666e-15
6.34171e-16
-3.62294e-15
5.63958e-15
-6.68455e-16
-2.5894e-15
3.27702e-15
7.08615e-15
6.99418e-16
4.41281e-16
1.6556e-15
-2.20839e-15
2.32064e-15
-1.52475e-15
-2.22629e-15
-3.10877e-15
-3.10433e-15
4.49611e-15
-8.06622e-16
-2.6552e-15
-1.48709e-15
-5.31821e-16
2.2151e-15
2.46225e-15
-1.39488e-15
-2.9831e-15
-7.74934e-15
6.87341e-15
1.95454e-14
-2.43916e-15
-6.64674e-15
2.30923e-15
4.32664e-15
-3.72105e-16
-3.52015e-15
-7.00025e-16
-1.63958e-16
1.29506e-16
-5.3772e-15
6.26494e-16
-1.17358e-15
6.89461e-16
2.08037e-15
-5.47377e-16
1.95261e-15
3.71268e-16
1.60312e-15
7.16211e-15
-6.15975e-16
-2.0516e-15
-7.82151e-16
9.46424e-16
5.46088e-16
-2.47838e-15
5.79567e-16
1.29666e-15
-1.34756e-15
3.60456e-15
3.35867e-15
1.59559e-15
-1.79505e-16
-5.02481e-15
-3.08549e-16
1.06068e-15
-1.41547e-15
-1.14789e-15
-5.40212e-15
-1.20056e-14
-1.86971e-14
4.85543e-15
1.08372e-14
1.42501e-15
-3.52426e-16
4.66925e-15
5.51483e-15
1.24852e-15
-4.13638e-15
-1.35099e-15
3.25604e-15
-3.03518e-15
1.46724e-15
-1.19462e-15
-7.51661e-15
-6.06342e-15
3.34175e-15
-1.69686e-15
-3.83973e-15
2.36286e-16
-6.55488e-16
-1.25656e-15
5.38961e-16
2.5835e-15
-3.24174e-15
-2.1462e-15
-2.51735e-15
-2.77079e-15
-9.89029e-15
2.63976e-15
3.51897e-15
3.38146e-15
-4.72836e-15
-15.9476
-11.443
-12.0558
-26.8472
-48.4897
-63.75
-64.9407
-53.5514
-44.2781
-50.6866
-67.9542
-88.5712
-111.225
-136.282
-161.998
-183.433
-196.427
-200.482
-195.277
-164.254
-113.309
-104.974
-150.386
-193.635
-221.181
-239.657
-236.553
-211.309
-191.334
-203.48
-241.969
-278.226
-280.08
-227.344
-110.247
58.2901
133.155
79.0067
18.6128
-10.1753
15.3388
11.088
13.2316
32.8086
61.5735
80.1484
78.0421
62.0492
53.6343
64.9493
85.4362
109.358
138.041
169.567
199.198
222.632
238.006
243.955
235.751
195.85
149.935
164.527
217.455
247.482
261.572
273.204
265.384
237.436
223.068
250.242
304.754
349.056
346.453
275.641
121.853
-92.4163
-162.742
-76.2028
-11.2129
11.9749
2.39235
1.62802
2.14644
3.71896
4.96031
8.87569
14.0239
12.7017
3.60056
-2.65476
-0.218681
4.08188
6.30118
9.50549
16.8133
25.2825
30.5224
33.2465
37.2409
33.6287
1.50131
-33.9302
-26.6723
10.4078
43.029
62.0459
67.6681
59.9112
43.4825
29.376
25.8557
32.6921
43.2156
50.5832
54.8815
38.7234
-19.3912
-45.414
-22.7804
-2.80165
-4.23829
-2.81937
-4.08139
-8.81328
-15.5888
-21.898
-23.7649
-19.789
-14.7009
-14.9171
-19.3812
-24.3722
-29.8645
-36.6248
-44.7469
-53.1322
-60.8194
-66.7073
-69.067
-61.5206
-44.8471
-37.3875
-46.2186
-57.2868
-66.7512
-75.8501
-78.6989
-74.0554
-68.6468
-69.4917
-77.6143
-87.5333
-90.6058
-80.7026
-55.5909
-11.5476
26.0635
20.5947
2.36029
-4.64354
-1.45045
-0.977313
-0.660079
-1.48263
-2.48636
-3.2913
-3.89602
-3.28297
-1.55386
-0.917518
-2.31487
-4.38466
-5.925
-7.65504
-10.0964
-11.9798
-12.1717
-11.3634
-10.408
-7.90508
-2.37169
3.53284
1.65661
-8.45438
-16.1243
-18.7545
-17.638
-14.059
-10.3609
-8.9246
-10.1782
-13.002
-14.7031
-13.2378
-8.15801
1.57293
11.6682
13.6424
6.78801
0.429355
0.037005
-0.167871
-0.133003
-0.184467
-0.292306
-0.244078
-0.130574
-0.148822
-0.0553097
0.214144
0.134143
-0.253039
-0.668457
-1.01435
-1.43207
-1.52741
-1.09634
-0.755425
-0.726711
-0.0462677
0.824135
1.29848
2.6152
0.519867
-2.53317
-2.91779
-2.30077
-1.36813
-0.231957
0.229765
-0.0622823
-0.547812
-0.820702
-0.549037
0.239138
1.74692
2.89088
3.16521
2.64448
0.925112
0.161873
0.0534973
-0.0791202
-0.134185
-0.120983
-0.0851118
-0.0353005
0.04203
-0.0676931
-0.0168395
0.0484162
0.00713246
-0.0655273
-0.152411
-0.172863
-0.0798927
0.0665451
0.102616
-0.0308526
-0.00429435
0.571764
-0.134082
0.194657
0.59901
0.0307708
-0.0198019
-0.164353
-0.256559
-0.115692
0.0583084
0.032756
-0.0468985
-0.0530667
-0.0947418
0.0601238
0.281742
0.247369
-0.0568257
0.365748
0.47678
0.0906249
0.0685717
0.0476719
0.00929045
0.0160013
0.0132056
-0.0212216
0.019197
0.0369944
-0.0866522
0.00345272
0.0191696
0.00851638
0.0141618
0.0708161
0.105021
0.0522396
0.0376163
0.0495734
0.00232848
0.297198
0.12589
-0.182524
0.187188
0.364776
0.242464
0.0505525
-0.0374716
-0.0904652
-0.0847366
0.00673445
0.0733569
0.0975328
0.0558216
-0.0562105
0.0766028
0.0740245
-0.24895
-0.315337
0.0182378
-0.00877017
0.0250954
0.0470902
0.0479666
0.0433464
0.0311693
0.00554313
-0.0102334
0.0526161
-0.00542231
-0.0375136
0.0373403
0.0262946
0.0352885
0.0830282
0.0717578
0.0108302
0.00277871
0.0160996
0.0363948
0.101255
0.250794
0.00619359
0.0274712
0.158467
0.0693251
0.0112798
-0.00454384
-0.0120556
-0.0258794
-0.0292782
-0.0133874
-0.0133798
0.0363798
-0.00199187
0.00680328
0.0732277
-0.0353268
-0.201059
-0.137354
-0.0358946
-0.00410191
0.013127
0.0200968
0.0195645
0.016039
0.0124176
-0.00252307
0.00950214
0.0360337
-0.0156144
0.0143839
0.0443195
0.0494436
0.0578437
0.0334463
0.00236894
0.00100596
0.00378129
0.0165492
0.0270971
0.15906
0.0539816
-0.0123507
0.0392462
0.0113227
0.0014073
-0.00137794
-0.00115718
-0.000154685
-0.00167077
-0.000636986
-0.00881451
-0.0139111
0.00969076
-0.0061964
0.0283319
0.0168659
-0.0422231
-0.0694438
-0.0185923
-0.0119011
-0.00481871
0.00324917
0.00743159
0.00611252
0.00520368
0.0036745
-0.000813039
0.0147503
0.00962968
-0.00130861
0.0253472
0.035674
0.026038
0.0104914
0.000498148
-0.00106792
0.000893496
0.00218687
0.00600172
0.0674519
0.028701
-0.0208676
-0.00138483
-0.000977856
-0.000324626
0.000246755
-0.000147753
3.4393e-05
2.49459e-05
0.00071616
0.0016803
-0.00363608
-7.54789e-05
5.44188e-05
0.00351075
0.00888926
-0.00284694
-0.014464
-0.00472716
-0.00595374
-0.00456807
2.00863e-05
0.0027402
0.00148484
0.00028214
0.00120032
0.000258845
0.00200373
0.00567349
-0.00190871
0.00367226
0.0108546
0.00596237
0.00244203
0.000677237
-0.00113532
-7.9244e-05
-0.00103357
0.000668251
0.0222383
0.0101763
-0.0170456
-0.00816183
-0.00152207
3.70075e-05
0.0003453
4.96471e-05
-2.73044e-07
-2.19933e-05
-7.21079e-05
0.000177599
5.83393e-05
-0.000498078
0.000171192
-8.563e-05
0.00180284
0.000597134
-0.00105439
-0.00055064
-0.00202345
-0.00169487
-0.000131027
0.000518125
0.000164441
1.48286e-05
4.43682e-05
6.89004e-05
0.000174818
0.00106423
-0.000157279
-0.00121395
0.00151293
0.00127568
0.000489483
0.000350532
-1.87265e-05
-0.000129324
-0.000289981
-0.000391988
0.00609503
0.003127
-0.00745056
-0.00317985
-0.00036463
0.000181926
2.14949e-05
2.70648e-06
2.53359e-07
2.58995e-07
-3.09573e-06
-7.95472e-06
1.99001e-05
-5.42437e-05
2.56679e-06
-0.00016273
0.000115032
0.000256897
2.15521e-05
-1.82753e-05
-0.000605784
-0.000686809
-2.83904e-05
2.94323e-05
8.45185e-06
6.18941e-07
2.30266e-06
-3.65116e-06
5.78225e-06
0.000201623
2.63818e-05
-0.000148854
-2.92767e-05
0.000280062
1.38111e-05
2.43211e-05
1.04094e-05
-0.000137839
-1.85591e-05
-8.09033e-05
0.00158535
0.00062387
-0.00147807
-0.000719946
-4.08048e-05
4.80544e-06
5.08777e-07
2.98066e-08
5.30533e-10
-1.66959e-09
1.15182e-08
4.81034e-08
-1.5152e-07
4.80401e-07
-1.31131e-06
6.95069e-08
1.63719e-06
1.54821e-05
1.61917e-05
-4.43159e-06
-9.68238e-06
-1.07405e-05
-4.17219e-07
1.19488e-07
1.40329e-08
2.51835e-09
2.95336e-09
-3.23918e-07
-5.83976e-07
1.73446e-07
-7.80466e-06
-2.33113e-05
-6.61927e-06
1.19876e-06
5.58622e-07
-8.16548e-08
9.19595e-07
-4.27451e-07
1.64483e-07
3.70965e-06
0.000365392
2.64545e-05
-0.000127445
-0.000218765
-1.27718e-05
-2.35429e-08
2.59766e-08
1.65363e-09
6.40781e-11
9.52566e-12
-8.89135e-12
-9.1141e-11
6.64448e-10
-2.4257e-09
4.75641e-09
-8.11265e-11
-2.79882e-09
1.67476e-07
-1.5344e-06
-2.56098e-08
-3.53253e-08
-2.24702e-08
-7.00832e-09
-1.11636e-09
-6.5783e-11
1.67799e-11
3.69811e-11
6.74043e-11
2.22209e-09
8.2412e-10
-2.01135e-08
-1.89522e-07
-8.87319e-08
2.67872e-09
1.35158e-09
8.5962e-10
-9.9288e-09
1.74642e-08
-4.95977e-08
-9.89723e-07
1.17788e-06
-7.47218e-06
-1.53645e-05
-4.10414e-06
-8.28553e-08
6.76758e-09
4.936e-10
1.78045e-11
3.8005e-13
-1.1656e-14
-6.71348e-14
-8.115e-13
-9.05919e-13
7.64256e-12
-1.09288e-11
-3.84869e-12
3.31034e-12
5.52915e-10
-5.20459e-09
-9.97091e-11
-2.68317e-10
-3.34695e-10
-1.1053e-10
-1.0968e-11
-3.85664e-13
-1.58048e-13
-5.8561e-13
5.08472e-12
-6.04107e-12
-4.03192e-12
2.04154e-11
-1.27339e-09
-8.79796e-10
-8.86411e-12
7.78721e-12
-4.24273e-12
7.5549e-11
-2.11375e-10
6.873e-10
2.55549e-09
6.11785e-10
-2.71186e-08
-1.01624e-07
-1.17014e-08
1.27391e-09
1.33605e-10
5.51288e-12
1.08049e-13
1.33717e-14
-5.13606e-15
3.04884e-15
9.96239e-15
-5.00546e-15
-1.53132e-15
8.29158e-15
-1.19839e-16
1.83421e-13
7.36861e-13
-1.21521e-11
-2.42031e-13
-1.24657e-12
-2.7207e-12
-5.20263e-13
-3.13222e-14
4.66658e-15
3.60777e-15
-9.56817e-16
-1.68286e-14
1.56229e-14
8.41233e-17
4.86374e-13
-7.53382e-12
-7.41318e-12
7.67412e-14
1.17539e-13
2.27861e-14
-1.81111e-13
8.1787e-13
-1.34601e-12
-7.6933e-12
9.27444e-13
-3.12363e-11
-5.33036e-11
1.4103e-10
2.53717e-11
1.40891e-12
1.89412e-14
-2.68873e-14
1.53625e-14
8.66486e-15
-6.03504e-17
-2.18706e-15
-3.19475e-16
1.11811e-14
-2.119e-14
6.00095e-15
2.03732e-16
-8.14355e-15
-1.10114e-14
1.49973e-14
1.74427e-15
-6.25285e-16
4.55123e-15
5.13945e-15
1.21917e-15
1.7139e-15
3.3647e-15
-6.49417e-16
5.15211e-16
-1.30751e-14
-5.71924e-15
-6.47503e-14
-5.31149e-14
3.71534e-15
-1.87319e-15
8.58851e-16
-4.80163e-15
-2.72095e-16
-1.1713e-15
1.35374e-14
5.72057e-15
6.06853e-14
3.02122e-12
1.76562e-12
1.75467e-13
-1.26892e-14
-1.76937e-14
2.38204e-15
-1.75563e-14
9.86585e-15
-8.95744e-16
-1.70007e-14
-4.34009e-15
1.51774e-14
1.56461e-14
-8.91591e-15
1.65862e-14
-1.20294e-14
-7.90208e-15
1.09603e-14
4.37031e-15
-4.46748e-15
-2.32358e-15
-4.23478e-15
-5.46361e-15
-4.07445e-15
1.12731e-16
-1.74953e-16
1.08368e-15
-7.66812e-15
-7.96692e-15
1.27407e-14
1.2868e-14
-3.64819e-15
8.48167e-15
6.81965e-15
-2.31622e-15
-1.19201e-15
-2.24911e-15
-4.89547e-15
3.59894e-15
-2.66072e-15
2.22458e-14
9.48671e-15
8.19899e-15
1.36926e-15
1.79595e-15
7.32883e-15
1.07747e-14
-1.11005e-14
-4.11148e-15
2.17796e-14
1.15781e-14
-3.42045e-14
-3.67335e-15
4.01029e-15
-3.76321e-15
8.8428e-15
-8.40657e-15
2.82087e-15
-4.5235e-15
-2.91845e-15
3.13141e-15
7.63259e-16
2.88179e-15
2.19161e-15
3.70627e-16
-5.08082e-15
1.39724e-15
-2.69501e-15
-3.66854e-15
2.78675e-14
-3.34865e-16
-7.96818e-15
-5.49216e-16
3.02956e-15
-4.19968e-15
8.70568e-17
3.19319e-15
3.31629e-16
-1.14989e-15
-1.30295e-15
-6.40168e-16
-1.03085e-14
5.19736e-15
1.01652e-15
1.29062e-14
3.93919e-15
2.27874e-15
-1.90558e-15
-4.64921e-15
3.19598e-15
-8.26122e-15
-2.94092e-14
3.07779e-15
7.94973e-16
-3.11063e-15
-4.37495e-16
-2.00147e-15
-2.5064e-15
1.67529e-17
-2.28932e-15
-1.41234e-15
-3.04896e-15
6.22317e-15
4.77865e-18
7.19271e-15
-5.41455e-15
-4.19804e-15
3.50137e-15
1.4159e-15
7.13886e-15
-4.33678e-15
1.20612e-15
-8.22545e-15
-4.29198e-15
-1.23471e-15
-3.29118e-16
3.37588e-15
2.93953e-15
4.30615e-15
2.0917e-15
-3.9124e-15
3.11958e-15
-1.619e-15
-9.8757e-15
-6.89726e-15
3.8559e-16
-1.00654e-14
-4.19375e-15
5.3435e-16
-1.79491e-15
9.81022e-15
2.11749e-14
7.12844e-15
-5.09658e-15
5.02698e-15
-7.38696e-15
6.53735e-16
2.72144e-15
2.42969e-15
3.78576e-15
3.61539e-15
2.99235e-15
1.37206e-16
-5.52733e-16
-3.17025e-15
-9.36777e-16
6.31643e-15
-4.42691e-15
-1.70317e-15
-4.94132e-15
2.00116e-15
1.27486e-15
-8.82498e-16
-1.05203e-15
2.66518e-15
3.84741e-15
4.91797e-16
6.33408e-16
3.37172e-15
-2.12586e-15
-2.04369e-15
-3.61488e-16
4.20705e-15
-1.80829e-15
-1.6525e-14
-3.49145e-15
3.53276e-15
-3.46147e-15
7.80062e-16
-4.31693e-16
-1.14303e-15
8.90947e-16
2.48369e-15
-6.48774e-16
-3.70883e-15
-1.24423e-15
-2.6794e-15
1.1486e-16
-2.04056e-15
-8.20701e-16
3.4227e-15
-1.86772e-15
2.09771e-15
-3.09687e-16
1.91326e-16
-1.02182e-14
8.54197e-15
-1.23172e-15
1.45449e-15
7.21331e-15
-1.90698e-15
-1.16069e-16
-7.93045e-16
2.0658e-15
2.94235e-16
2.71469e-16
1.84692e-15
2.0896e-15
-1.97867e-15
-3.05352e-15
-1.10514e-15
2.08167e-15
3.99073e-15
-1.58733e-15
3.96532e-15
2.18399e-15
-1.42113e-15
3.25167e-16
-5.33356e-16
3.92001e-15
-2.9424e-15
1.18391e-15
-1.54886e-15
7.9145e-15
3.56218e-15
3.89295e-15
6.81946e-15
9.89889e-15
7.14742e-15
-2.84526e-15
-2.70435e-15
7.90256e-15
-2.40495e-15
6.83292e-15
-4.23739e-15
-8.11125e-15
5.26579e-16
2.5624e-15
8.10912e-15
4.21938e-15
-3.33753e-15
1.48109e-15
2.54129e-15
1.24552e-15
3.26719e-15
6.85722e-16
-3.27158e-15
-3.49716e-15
6.20453e-15
-3.48175e-15
-3.89435e-15
1.86379e-15
3.13895e-16
-9.11897e-16
5.85524e-16
-1.16637e-16
-2.09954e-15
2.30617e-15
-1.68683e-15
6.67697e-16
1.91971e-15
1.33584e-15
-3.01269e-15
1.06604e-14
5.50117e-15
-6.63097e-15
-2.78581e-15
-28.8309
-17.9012
-23.1669
-48.5392
-75.6203
-90.5069
-92.6308
-87.4237
-83.3496
-86.9226
-102.344
-128.751
-160.827
-191.127
-214.824
-230.207
-243.523
-262.746
-281.581
-262.16
-169.481
-58.0571
-27.6041
-64.1552
-94.5338
-103.687
-106.59
-120.899
-158.858
-214.821
-266.713
-284.568
-244.681
-152.967
-43.3267
48.615
82.3453
56.1969
9.81682
-24.47
35.1281
19.249
25.8762
57.8357
91.2225
108.339
109.309
100.764
94.081
99.7493
122.894
158.966
199.084
234.938
263.283
284.298
304.75
329.775
346.635
308.51
188.376
74.288
62.3885
97.7051
108.419
102.505
105.028
131.854
188.465
262.289
325.133
341.535
286.906
173.517
42.7628
-63.8461
-93.6304
-51.0554
4.60762
36.9757
-2.78754
0.254785
3.02104
6.27302
9.94731
14.0938
17.809
21.1617
22.8177
20.2313
15.2225
13.2412
16.4431
22.4329
27.2664
28.1162
27.1171
31.2739
45.6351
62.453
54.3497
5.25258
-34.6667
-18.1086
20.991
43.184
44.4888
36.0178
30.2635
32.7714
42.3496
53.9474
59.1993
52.2717
36.0444
13.2402
-16.6219
-32.937
-24.9711
-10.0435
-7.08805
-5.3844
-8.68109
-15.9774
-22.9817
-27.0249
-28.0002
-27.0121
-25.9588
-26.411
-29.8536
-36.4513
-44.6829
-53.0029
-60.9631
-68.3246
-76.1291
-85.4528
-93.4202
-88.5641
-62.9068
-30.7064
-19.4286
-27.9018
-34.0225
-35.1629
-37.3492
-43.4301
-54.5444
-69.1412
-82.9115
-88.8974
-81.4923
-61.4191
-35.4391
-8.86583
10.1444
10.0994
-1.79964
-7.94062
-0.700606
-0.860232
-1.14355
-2.81439
-4.79729
-6.15641
-6.71721
-6.82922
-6.72398
-6.34953
-6.17656
-7.11474
-9.38625
-11.9615
-13.4739
-13.1639
-12.0185
-12.3038
-15.1657
-16.5955
-10.8185
-0.00704171
7.93822
3.9246
-6.14111
-10.5375
-9.94209
-8.50692
-8.77076
-11.5263
-15.5886
-18.0068
-16.1614
-10.1473
-2.24712
5.25796
10.402
10.8895
6.26581
0.689223
0.0474591
0.0571249
-0.00329853
-0.133524
-0.464498
-0.727128
-0.886171
-1.00687
-1.04599
-0.900146
-0.705073
-0.663514
-1.00466
-1.53669
-1.68858
-1.15361
-0.423199
-0.193779
-0.816435
-2.00793
-0.787037
1.41457
2.96129
3.64096
0.561257
-1.80338
-1.52871
-0.522146
-0.0300331
-0.355606
-1.14359
-1.8206
-1.64057
-0.535501
0.996196
2.45676
3.31089
3.23769
2.32719
0.394547
-0.164117
0.130918
-0.0558207
-0.0905103
-0.0798878
-0.0917107
-0.113961
-0.158627
-0.220911
-0.236553
-0.203268
-0.179471
-0.157163
-0.121592
0.0164224
0.165603
0.137835
0.0202017
0.0479073
-0.333686
-0.466291
0.388938
0.107909
0.500356
0.480178
-0.263795
-0.369441
-0.173052
-0.0810003
-0.0880841
-0.0814631
-0.15162
-0.206164
-0.0691908
0.125927
0.190931
0.115762
0.262451
0.566194
0.311911
-0.0601586
0.0580489
0.0385844
-0.0439752
-0.00838688
0.0215258
0.0290398
0.0432032
0.052421
0.0397263
0.0275916
-0.000250441
-0.00540604
0.0624625
0.159372
0.13129
0.0281646
-0.00901486
0.012687
0.0435047
-0.138325
0.0737177
-0.0386299
-0.354948
-0.00921868
0.0857284
0.00513575
-0.00142627
0.00419464
0.0324687
0.0930446
0.0930334
0.0141984
-0.019386
0.0226784
0.0462097
-0.114008
-0.227596
-0.0549789
0.143121
0.0269719
0.00429157
0.063738
0.0266569
0.0255443
0.0341386
0.0371094
0.0430617
0.0611392
0.0672023
0.0573266
0.0581031
0.0636615
0.0796395
0.0665865
0.0115167
-0.0154445
-0.00298781
-0.000176514
0.0243093
0.0258603
0.0771428
0.09488
-0.146209
-0.0758256
0.0564921
0.0330594
0.0146587
0.016665
0.0262589
0.0346671
0.0314511
0.00575102
-0.0165596
-0.0181985
0.01781
0.0015891
-0.0900758
-0.0942825
0.0161795
0.0325602
-0.00116807
0.0236014
0.0330721
0.0305658
0.0258791
0.0221949
0.0196484
0.0199692
0.0219981
0.0247172
0.0293442
0.051514
0.0644257
0.0290535
-0.00827805
-0.0120193
-0.00365167
-0.000174944
0.00184218
0.009481
0.0300757
0.0716729
-0.0180344
-0.0301008
0.0159611
0.0124914
0.00560438
0.00448674
0.00374337
0.00204772
4.59363e-05
-0.00188321
-0.00260154
-0.00364617
-0.00364831
0.00744262
-0.0117311
-0.0248511
0.00786429
0.0175036
-0.00702165
-0.00628999
0.0094736
0.0155235
0.0161479
0.0130434
0.0112909
0.006825
0.00272882
0.00415767
0.00972381
0.0157009
0.0188581
0.00771812
-0.0016044
-0.00287981
-0.000893893
7.54299e-05
0.000230367
0.00212865
0.00766946
0.0278253
-0.000118061
-0.0105765
0.0027239
0.0035299
0.00167419
0.000528153
0.000874411
0.0001187
-6.56599e-05
6.02074e-05
-7.22236e-05
0.000708109
-0.000688171
0.000917395
-0.00081356
-0.00242931
0.01018
0.00533442
-0.00799619
-0.0093642
0.000344902
0.00618702
0.0077796
0.00603399
0.00445549
0.00189136
0.0003185
0.000275526
0.00208282
0.00318093
0.00181751
0.000623123
-1.86295e-05
-0.000292095
-1.73868e-05
-0.000136498
-2.17441e-05
0.000186831
0.00185121
0.00821538
-0.000160558
-0.00487484
-0.000726454
0.000484843
0.000444419
0.000512044
0.000528802
0.000107839
5.20487e-05
2.79295e-05
9.19595e-06
4.1394e-05
-5.94461e-07
8.16939e-05
-0.000183665
-1.0064e-05
0.00454471
0.00242437
-0.00280766
-0.0043972
-0.000520752
0.00145253
0.00147692
0.00136087
0.000669616
0.000233486
0.000102789
7.59316e-05
0.000296944
0.000601281
4.7549e-05
5.37392e-06
1.80713e-06
-2.79856e-06
6.42353e-07
-6.46202e-06
-3.61829e-06
-0.000372767
0.000887265
0.0024795
-0.000430908
-0.00173816
-0.000686495
4.36098e-05
0.000191711
0.000345568
3.97444e-05
5.81216e-08
-3.07406e-07
-1.69586e-07
-1.5473e-06
2.60623e-05
-6.21248e-06
7.48276e-06
-4.93106e-05
-4.09115e-05
0.00130826
0.000731151
-0.000518547
-0.00119791
-0.000147025
0.000199251
0.000126638
0.000191197
-5.80969e-07
-1.41819e-05
-5.82849e-06
5.2286e-07
6.6495e-06
1.35207e-05
2.92711e-06
-4.47858e-07
-4.19241e-07
-1.04401e-07
7.394e-07
1.61703e-07
2.52215e-06
-5.80002e-05
0.000420494
0.000721406
-2.876e-05
-0.000217301
-0.000136894
-6.85474e-05
1.51639e-05
2.79686e-06
8.4417e-08
2.603e-09
1.29493e-09
1.65229e-10
1.47961e-08
-2.39579e-07
1.13672e-06
-5.16734e-09
-4.67868e-07
-6.92239e-06
0.000234891
1.18136e-05
-7.84999e-05
-9.02374e-05
-9.83112e-06
5.47366e-06
5.86848e-06
1.41037e-06
-1.6079e-07
-2.48769e-07
-3.61701e-08
-9.91445e-09
-1.57339e-09
8.52223e-08
4.19927e-08
-1.83314e-09
-2.79767e-09
8.57685e-10
-8.44443e-09
1.74945e-11
-1.10783e-08
-7.33365e-07
1.20803e-05
3.90591e-05
-8.81155e-06
-4.67774e-05
-2.32353e-05
-7.04784e-07
2.72181e-07
2.2259e-08
7.52045e-10
1.48745e-11
2.4729e-12
5.92347e-12
1.62827e-10
8.1548e-10
-4.37894e-09
1.10195e-09
7.83531e-09
-4.83225e-07
9.05895e-06
-1.03078e-06
-3.27398e-06
-1.26886e-06
-6.40734e-08
-5.15289e-09
2.65208e-09
9.01711e-10
-6.06229e-13
1.30217e-10
3.79515e-11
4.11778e-12
-8.97238e-11
1.65831e-10
3.91257e-10
5.96214e-12
-7.97396e-12
-8.78824e-12
7.99615e-11
-7.78776e-11
2.70717e-11
1.20652e-08
-2.31653e-08
-6.6737e-07
-5.65518e-06
-3.06569e-06
-1.189e-07
2.19678e-08
2.95615e-09
1.27471e-10
1.94474e-12
-2.18857e-13
-1.13889e-14
-4.05408e-14
-5.93628e-12
7.37655e-12
7.74883e-12
3.73454e-11
-2.48721e-10
-4.46058e-09
1.14568e-07
-3.90433e-09
-6.68068e-09
-1.94584e-09
-1.30452e-09
-1.85858e-10
-7.42423e-12
8.98727e-14
-4.06935e-14
-3.59249e-14
-2.90213e-14
-6.60366e-15
1.18812e-13
-2.58044e-12
1.21843e-12
1.78526e-13
-1.82708e-15
3.61172e-14
-7.00898e-13
1.77492e-12
-3.22271e-12
-7.60092e-11
3.52537e-11
1.05329e-11
-3.61875e-08
-1.38843e-08
1.37945e-09
3.48592e-10