/*--------------------------------*- C++ -*----------------------------------*\
| =========                 |                                                 |
| \\      /  F ield         | OpenFOAM: The Open Source CFD Toolbox           |
|  \\    /   O peration     | Version:  5.0                                   |
|   \\  /    A nd           | Web:      www.OpenFOAM.org                      |
|    \\/     M anipulation  |                                                 |
\*---------------------------------------------------------------------------*/
FoamFile
{
    version     2.0;
    format      ascii;
    class       volScalarField;
    location    "50.4676134421789371";
    object      MDu1;
}
// * * * * * * * * * * * * * * * * * * * * * * * * * * * * * * * * * * * * * //

dimensions      [0 1 -2 1 0 0 0];

internalField   nonuniform List<scalar> 
60000
(
-0.000662477
-0.000220292
0.000136861
0.000304757
0.000287053
0.000113016
-9.64305e-05
-0.000287901
-0.000576614
-0.000895486
-0.00101416
-0.00082489
-0.000469774
-0.000261363
-0.000343957
-0.000573587
-0.000760999
-0.00086389
-0.000891974
-0.000940172
-0.0011101
-0.00155045
-0.00207726
-0.00259061
-0.00319948
-0.00379232
-0.00410534
-0.00386683
-0.00292051
-0.00167603
-0.00100164
-0.00108804
-0.00146988
-0.00171837
-0.00143542
-0.000543059
7.20483e-05
-0.000189189
-0.000715952
-0.000895287
0.000156224
-0.000515948
-0.000909214
-0.000846165
-0.000429312
-1.01926e-05
0.000203303
0.000352068
0.000638281
0.000877647
0.000845044
0.000512878
0.000227727
0.000256492
0.00038124
0.00039707
0.000406191
0.000725047
0.00144268
0.00237733
0.00341876
0.00447747
0.00537216
0.00674413
0.00933083
0.0127036
0.0151543
0.0143794
0.00981419
0.00510611
0.00371958
0.00419177
0.00467846
0.00433038
0.00240059
5.53444e-05
-9.66934e-05
0.000779101
0.00106586
0.000764667
0.00243602
0.00190786
0.00127263
0.000484849
-0.000198009
-0.00033137
-7.33789e-05
0.00016584
0.000525368
0.00124478
0.00196771
0.00207182
0.0013253
0.000482174
0.000502085
0.00120515
0.00194834
0.002123
0.00163396
0.000826876
5.12879e-05
0.000381449
0.00158518
0.00298137
0.00433079
0.00556082
0.00673528
0.00789448
0.00784602
0.00526958
0.00213875
0.00132231
0.00228332
0.00388408
0.00494989
0.00346187
0.000247063
-0.000225575
0.00129416
0.00232085
0.000207386
0.000302573
0.000320273
0.000254986
7.03717e-06
-0.000252402
-0.000302378
-0.000230905
-0.000204803
-0.000128834
-1.51878e-05
2.78594e-05
-6.5016e-05
-0.00023353
-0.000244868
-8.61987e-05
1.23208e-05
-0.000233149
-0.000761399
-0.00103568
-0.00108598
-0.00101967
-0.000858316
-0.000975904
-0.00145092
-0.00205236
-0.00253042
-0.00269099
-0.00243328
-0.00206885
-0.00208644
-0.00222287
-0.002043
-0.00156917
-0.000814706
-0.000180936
-0.000344321
-0.000724559
-0.000491583
-4.36503e-05
-3.33641e-05
-1.80629e-05
-2.18414e-05
-1.87704e-05
-1.27831e-05
-2.02636e-05
-4.07519e-05
-5.38155e-05
-5.24352e-05
-4.64039e-05
-2.71724e-05
-1.60236e-05
-2.33718e-05
-2.30607e-05
-8.29811e-06
3.56929e-06
5.95681e-06
-3.93985e-05
-0.000218031
-0.000314784
-0.000178725
-0.000125761
-7.93887e-05
-5.8941e-05
-9.2241e-05
-0.00012339
-0.000158506
-0.000215906
-0.000271716
-0.000340344
-0.000408293
-0.000384979
-0.000323266
-0.000297717
-0.000270372
-0.000176137
-0.000123203
-0.000119684
-0.000118896
-8.19438e-05
-4.1806e-06
-1.28528e-06
-1.05605e-07
2.83213e-06
5.62198e-06
1.01956e-05
1.38695e-05
5.37831e-06
-4.13221e-06
-7.03641e-06
-5.04033e-06
9.60124e-07
-3.84959e-07
2.70078e-06
1.34448e-05
9.05479e-06
-6.84701e-07
8.90383e-06
-2.82311e-05
-0.000146565
-5.94428e-05
4.83772e-06
-1.87686e-05
-2.98274e-05
-5.36598e-06
7.18795e-06
5.3503e-06
-2.83998e-07
1.36355e-06
1.59491e-05
5.1492e-06
-1.63633e-05
2.50965e-06
2.60083e-05
2.07609e-07
-1.63619e-05
-2.18112e-06
2.19695e-06
6.73246e-06
-3.97221e-06
5.52347e-07
-1.33162e-06
-3.45612e-06
-3.50527e-06
-2.9635e-06
-2.73597e-06
8.92004e-07
4.57762e-06
3.26079e-06
1.55084e-06
-6.88983e-07
4.00721e-07
-5.44669e-08
-3.50797e-06
-5.61592e-06
-9.98776e-06
-1.36673e-05
-3.54538e-06
1.31632e-05
-5.61786e-05
-7.97209e-05
1.03871e-05
-9.40863e-06
-1.79884e-05
1.67091e-06
3.89946e-06
1.19322e-06
3.59343e-07
-1.11061e-07
9.3048e-06
1.69928e-05
5.13592e-06
-7.09144e-06
4.36621e-06
1.74483e-05
4.37995e-06
1.58553e-07
-2.45015e-06
3.49245e-07
3.74035e-06
8.58488e-07
4.43138e-07
-2.3519e-07
-8.74549e-07
-1.26689e-06
-2.09116e-06
-2.74033e-06
-1.36593e-06
5.51268e-07
1.11882e-06
-6.79148e-08
-5.02133e-07
5.20944e-07
-8.96712e-07
-5.04894e-06
-8.35716e-06
-7.03959e-06
-4.61789e-06
5.98446e-06
2.04748e-06
-5.27008e-05
5.10593e-07
1.1152e-05
3.6883e-06
4.5052e-06
1.27015e-06
2.09195e-08
1.16989e-08
-1.11583e-07
-7.061e-08
3.54442e-06
5.15001e-06
-8.43424e-10
-4.06435e-06
2.3103e-07
3.89861e-06
1.26011e-06
-4.85257e-08
-1.40844e-06
1.88575e-07
6.97011e-08
3.17998e-07
3.61964e-07
1.7024e-07
-6.54744e-08
-1.96092e-07
-6.14879e-07
-9.06682e-07
-5.15114e-07
3.2721e-08
-6.00202e-07
-1.18929e-06
2.47818e-07
-1.06186e-07
-2.15437e-06
-2.25621e-06
-1.02223e-06
-6.46612e-07
-5.036e-08
1.07601e-05
-5.04561e-06
-2.33826e-06
1.80594e-05
7.04947e-06
1.92454e-06
6.46103e-08
-8.90548e-08
2.08924e-08
1.50232e-08
-2.47691e-08
-2.53661e-08
6.97595e-07
1.08976e-06
-4.80727e-10
-9.55146e-07
-1.79689e-07
5.19096e-07
3.56457e-07
-1.85743e-08
-2.25151e-07
-3.51132e-08
3.05336e-08
1.04501e-07
7.75762e-08
1.01471e-08
6.98761e-09
4.25281e-09
-8.18297e-08
-1.42547e-07
-4.33913e-08
-1.09687e-07
-7.71609e-07
-1.8224e-08
6.72507e-08
-6.10889e-07
-2.51312e-07
-3.40847e-08
2.38399e-07
-8.18906e-08
3.27128e-06
7.47389e-06
-6.63109e-07
1.001e-05
4.89296e-06
6.85525e-07
-4.26626e-08
-2.94245e-08
-9.4202e-09
2.45255e-10
5.19857e-09
-9.23623e-09
-1.05449e-08
7.49653e-08
1.54364e-07
1.62508e-08
-1.31147e-07
-4.97223e-08
4.94342e-08
4.99613e-08
-1.07737e-08
-1.02395e-08
-7.46873e-09
4.48871e-09
4.29648e-09
2.98856e-09
1.24902e-09
1.45221e-09
-4.9697e-11
-1.10568e-08
-2.20116e-08
3.98573e-08
-1.09937e-07
-4.22169e-08
1.16052e-07
-1.87122e-08
-8.38553e-09
-3.45825e-08
2.41828e-08
7.63728e-08
2.94905e-07
3.07962e-06
2.99837e-07
2.04481e-06
1.99177e-06
2.16829e-07
-1.44031e-08
-4.62023e-09
-6.06476e-10
1.0903e-09
-7.17306e-12
3.5445e-10
-6.52747e-10
-3.77514e-09
2.13952e-09
1.13669e-08
1.24308e-09
-1.33113e-08
-6.48173e-09
1.61646e-09
1.15155e-09
-4.31972e-10
-1.08403e-08
-8.88373e-09
-6.55168e-10
2.75375e-10
1.30691e-10
-3.89638e-10
-4.01865e-10
9.23078e-11
-1.25518e-09
4.00738e-09
2.62719e-08
-9.18687e-09
6.12984e-08
5.14534e-08
1.68863e-08
-6.21089e-09
-4.38593e-09
1.24609e-08
9.63488e-09
4.48872e-07
2.32979e-07
-1.30784e-07
2.58145e-07
4.11184e-08
4.63734e-10
4.72202e-09
2.8463e-10
3.30098e-12
2.10601e-11
-3.37779e-12
1.67902e-11
-1.25395e-11
-3.2833e-11
1.04217e-11
-9.31758e-12
-1.11703e-11
-3.50972e-10
-2.05482e-10
3.09199e-10
-1.95633e-10
-5.94196e-10
-5.89917e-10
-3.67324e-11
6.0345e-12
9.24935e-13
1.49011e-12
-1.03784e-11
-3.22214e-11
-7.28177e-11
7.08455e-12
1.69331e-08
1.48579e-09
2.00898e-08
1.78964e-08
9.61141e-09
4.99064e-10
-2.89861e-10
-3.37398e-09
1.15159e-10
2.53672e-08
5.58496e-08
-1.25706e-07
-6.30125e-08
-1.71963e-09
6.74673e-09
1.98425e-10
1.85315e-12
-3.90833e-14
-2.27474e-13
1.72283e-13
5.40974e-14
6.54032e-14
3.28734e-13
-6.26526e-14
-1.94171e-14
1.68926e-13
-6.84534e-12
-1.72162e-12
-1.04413e-11
-5.85565e-13
-4.47572e-12
-5.82037e-12
-2.44693e-13
6.0763e-14
6.49812e-15
-7.85967e-16
-2.7545e-14
5.75515e-13
-1.31247e-12
-1.67537e-10
6.58634e-10
6.04904e-10
9.25231e-10
9.95246e-10
1.15525e-10
-2.42322e-10
4.00162e-11
-2.8972e-10
-4.07035e-09
5.479e-10
4.66417e-09
-1.75329e-08
-1.348e-08
6.84054e-10
3.10926e-10
1.17557e-11
2.39934e-13
4.41901e-15
1.06829e-15
-7.5126e-16
-8.51663e-16
-3.43384e-17
-1.36954e-15
1.9093e-16
3.58652e-16
1.2672e-15
-9.08956e-15
-4.19234e-16
-3.59876e-14
-9.20832e-16
-6.82973e-15
-1.19725e-14
1.18748e-15
2.5204e-16
1.44277e-17
4.92575e-18
2.47517e-17
-1.05261e-15
2.52881e-15
-5.28709e-14
9.64146e-12
-5.34922e-11
2.65161e-11
1.15435e-11
1.03845e-12
-5.85776e-14
4.29542e-12
2.88501e-11
-2.20725e-11
-1.64426e-11
-6.62271e-12
-2.13923e-11
3.54492e-11
1.71025e-11
4.63335e-13
8.05774e-16
9.40882e-17
-2.07311e-18
-3.76109e-18
1.11669e-18
3.13071e-18
-2.04547e-19
1.28147e-18
3.17884e-19
-2.36098e-18
1.8463e-18
-9.77669e-18
-4.28743e-17
-1.9021e-16
-3.76892e-18
3.64872e-17
1.5594e-16
3.23377e-17
1.31613e-18
-4.63046e-20
-4.55143e-20
7.97717e-20
4.45323e-19
-2.70044e-17
3.76663e-16
5.62954e-16
-1.53845e-13
-8.6169e-14
5.61578e-14
4.1389e-15
-1.57718e-16
2.21777e-15
-1.24566e-14
3.80855e-14
1.57507e-13
1.73761e-15
3.05837e-13
6.14525e-13
-7.22444e-15
-4.58113e-15
-1.02293e-16
5.84707e-18
3.08213e-19
2.91371e-19
1.86353e-19
1.82783e-19
-4.39728e-20
-5.20978e-19
1.35548e-19
-2.47088e-19
-7.14583e-19
2.46466e-19
-4.84091e-19
3.80121e-19
-1.45961e-20
-1.5252e-20
5.95545e-19
1.00142e-19
-5.23347e-20
-5.21815e-20
5.52273e-20
1.11105e-19
-6.47878e-21
-4.60555e-20
4.89935e-19
-3.17637e-17
-8.89767e-17
-2.73166e-15
-5.74323e-16
-4.47466e-17
-1.82468e-18
3.24242e-18
-2.28727e-16
4.36721e-16
-1.59415e-16
1.26963e-16
-4.21413e-15
-9.14126e-15
-1.65368e-15
-7.19288e-17
1.72769e-18
1.17302e-18
-7.2768e-19
5.97548e-20
5.40592e-19
-1.77113e-19
8.78396e-20
-6.95804e-20
-1.95839e-19
6.00775e-19
2.76233e-19
-1.61906e-19
-1.7262e-20
-4.06452e-20
-1.4892e-19
-7.19441e-20
8.75636e-20
2.25755e-20
1.54347e-20
2.52242e-20
1.46505e-19
-2.63489e-20
3.62746e-20
6.07281e-22
-2.8097e-20
-1.10006e-19
4.46984e-19
-1.83846e-17
-9.98986e-18
-6.92239e-19
7.71923e-20
-6.80931e-20
3.18944e-19
-1.44652e-18
-6.37849e-19
5.86026e-19
-1.89742e-17
-6.10483e-17
-8.54935e-18
-3.08607e-19
-1.40123e-19
3.74294e-19
-1.80047e-22
-2.5508e-19
-1.68195e-20
-1.45204e-19
2.32481e-19
5.75839e-19
3.19018e-19
-7.08084e-19
6.80582e-19
-4.55712e-19
-1.11413e-19
9.96187e-20
-2.67892e-19
-4.74783e-20
5.28064e-20
-3.50653e-19
4.28809e-20
1.37486e-19
6.45671e-20
2.93923e-20
1.10595e-20
3.32488e-21
-1.93161e-21
5.3681e-20
-1.28051e-19
-2.76005e-19
-5.47493e-20
3.64123e-20
-1.52827e-19
-7.06339e-20
1.38003e-20
-3.39487e-20
-3.02128e-20
1.99508e-21
-6.19315e-21
1.02912e-19
1.15111e-19
-1.37015e-19
4.6016e-19
3.08669e-20
-8.68798e-21
1.23539e-19
-2.6725e-19
-9.01906e-21
-1.24039e-19
-9.24553e-20
-1.65502e-20
-1.88332e-19
-7.97289e-20
2.20302e-19
1.30813e-19
2.61611e-19
6.87358e-20
-1.36487e-19
5.60805e-20
-1.02477e-19
-2.39987e-21
-4.88898e-20
-8.43366e-20
1.11981e-20
8.18145e-20
8.91033e-21
-4.42868e-21
-8.8717e-21
-9.14201e-21
-5.91952e-20
1.15208e-19
-4.36824e-20
-1.79084e-19
3.04362e-20
-2.2818e-20
-3.54026e-20
-6.3112e-20
-9.98267e-20
-2.3777e-20
-4.0382e-20
-2.66124e-19
2.48209e-19
1.39863e-19
-4.18175e-20
1.49033e-19
1.29415e-20
-7.3154e-20
5.91746e-20
-2.18294e-19
-1.68034e-19
-1.53339e-19
3.61905e-19
-3.47088e-19
-9.89869e-20
1.69492e-19
7.34047e-20
-1.42594e-19
1.99016e-20
-1.7729e-19
1.7412e-20
1.66001e-19
-3.50628e-20
-1.3595e-19
3.61916e-21
-2.54685e-20
9.10957e-21
1.78977e-19
5.80915e-20
-2.67796e-20
6.57745e-20
1.58546e-19
2.62178e-20
1.345e-19
4.37102e-20
-7.61973e-21
6.09866e-20
-8.67522e-20
4.29403e-20
-7.46464e-20
-1.84156e-19
-1.11489e-19
-6.61163e-20
-9.85364e-20
-1.90054e-20
-1.58576e-20
1.66533e-20
7.35391e-20
7.06602e-20
-2.50624e-20
4.75702e-20
4.17976e-19
1.9213e-20
8.96745e-20
-9.53519e-20
-7.77857e-20
-3.26677e-20
-4.18404e-20
3.42081e-20
-1.18896e-19
1.85323e-20
3.38976e-20
3.72512e-21
8.01891e-20
-3.94522e-20
-6.06655e-21
-4.57111e-20
4.77471e-20
-1.25246e-19
-1.00287e-19
-2.86786e-20
6.13889e-21
-1.07958e-19
-1.55409e-20
5.39974e-20
-4.73961e-20
1.40807e-20
-6.85297e-22
-1.16764e-19
-1.58909e-20
1.55079e-19
-6.90863e-20
4.25752e-20
8.33598e-20
4.86089e-20
-1.29723e-20
9.56479e-20
-7.05885e-20
-1.95581e-19
7.47616e-20
-1.20779e-19
-2.06862e-19
-2.29135e-20
3.13629e-22
1.24067e-20
5.29712e-20
1.91065e-19
1.85532e-20
7.84084e-20
-2.10213e-20
7.21955e-20
-1.06181e-19
2.81202e-20
-1.58014e-19
-2.62435e-19
3.47361e-20
2.1771e-20
-3.2825e-20
-5.02021e-20
4.70183e-20
3.68493e-20
-2.30257e-21
-6.45728e-20
-1.22958e-19
-5.5383e-20
-5.55305e-20
-1.20132e-19
3.13576e-20
-1.07821e-19
4.4053e-20
7.68526e-21
3.72053e-20
7.2557e-20
3.37256e-20
-2.45734e-20
-3.7408e-20
-4.66239e-20
2.86521e-21
4.52701e-20
-8.40209e-20
-2.83129e-20
-7.23405e-20
-4.07767e-20
1.33949e-20
-2.5532e-20
-2.7593e-20
-1.67174e-20
-1.31612e-20
7.46541e-20
4.83379e-20
-2.63426e-20
-3.66445e-21
-2.43371e-20
-1.0253e-19
4.13827e-21
3.98594e-20
3.52838e-20
3.00335e-20
6.71067e-20
-6.69878e-20
-6.19067e-20
-2.4445e-20
-3.62578e-20
-1.73459e-21
-6.37105e-20
3.22647e-20
-1.44232e-20
3.70128e-20
4.49749e-20
-2.68294e-21
2.34383e-20
-6.48891e-20
-3.15461e-20
4.21218e-20
-1.34672e-20
-3.63569e-20
3.37186e-21
2.06396e-20
-3.05212e-20
-2.88638e-20
2.91748e-20
6.05022e-21
-2.56211e-20
7.47051e-20
1.91169e-20
-2.20878e-20
-3.51494e-20
-1.43048e-20
-4.10821e-20
-4.82497e-20
-5.72342e-20
-5.43768e-20
4.02543e-20
5.30124e-20
6.92379e-20
-9.10496e-21
-7.00161e-20
-4.57429e-20
7.14484e-20
1.0375e-19
2.42072e-20
4.51784e-20
2.09892e-21
-2.27552e-20
6.18668e-20
-8.01019e-20
-9.89316e-21
-4.09132e-20
-1.03933e-20
-4.43806e-20
-3.07838e-20
3.33703e-21
-3.13534e-20
-1.43582e-20
-4.90593e-21
-1.21977e-20
1.08061e-20
1.94857e-20
1.47115e-20
-1.11346e-20
-5.37557e-21
2.0457e-20
-7.22658e-20
-1.25912e-20
7.013e-21
1.376e-20
-9.13995e-21
-0.000176008
-0.000120994
-0.000156878
-0.000356867
-0.000638027
-0.000875596
-0.000934312
-0.000766507
-0.000543957
-0.000539434
-0.000733341
-0.000964409
-0.00119822
-0.00148081
-0.00182503
-0.00216024
-0.00241192
-0.00256257
-0.00259016
-0.00218168
-0.00123566
-0.000722258
-0.00121638
-0.00198196
-0.00257616
-0.00297663
-0.00303739
-0.00272772
-0.00233587
-0.00224947
-0.00255468
-0.00298574
-0.0031698
-0.0028838
-0.00195953
2.48586e-05
0.00164308
0.00126583
0.000365104
-9.9216e-05
8.50091e-05
5.84196e-05
0.000109422
0.000341983
0.000714066
0.00101444
0.00103526
0.0008237
0.000715161
0.000876943
0.00113111
0.00147186
0.00198801
0.00265882
0.00343633
0.00435441
0.00540871
0.00636309
0.00678349
0.00590471
0.00454535
0.00467416
0.00532591
0.00556129
0.00621141
0.00743458
0.00821247
0.00790326
0.00746192
0.00807467
0.00959369
0.0111234
0.0114755
0.0095045
0.0042945
-0.00237299
-0.00285484
-0.000634054
5.06744e-05
0.000113421
0.000131553
8.73494e-05
0.000171596
0.00037138
0.000643219
0.00108682
0.00151076
0.00138796
0.000684169
0.000299621
0.000498172
0.00077061
0.000980553
0.00131797
0.00198749
0.00290575
0.00383545
0.00464154
0.00538518
0.00506556
0.00177287
-0.00147346
-0.00075734
0.00166054
0.00398356
0.00604242
0.00727395
0.00709816
0.00570901
0.00426594
0.00384371
0.00448042
0.00559611
0.0067451
0.00777101
0.00515004
-0.00266837
-0.00322467
-0.000871313
7.72828e-06
2.38839e-05
2.45775e-05
-1.10719e-05
-5.85129e-05
-0.000135741
-0.000197902
-0.000192766
-0.000164892
-0.000211425
-0.000298124
-0.000290519
-0.000257776
-0.000285454
-0.000336173
-0.000385038
-0.000517537
-0.000811479
-0.00119014
-0.00153347
-0.00174252
-0.00202024
-0.00233779
-0.00191144
-0.00116956
-0.000938212
-0.00120071
-0.00161051
-0.00193262
-0.00218852
-0.00243852
-0.00264352
-0.00275603
-0.00268567
-0.00229747
-0.00140468
-1.80067e-05
7.14909e-05
-0.000958494
-0.000652717
-0.000139283
-1.49105e-05
-3.18265e-06
1.57973e-07
9.13981e-07
-4.00815e-07
-9.95992e-06
-3.15745e-05
-4.61509e-05
-4.03469e-05
-4.24249e-05
-3.98586e-05
-2.92004e-05
-1.92045e-05
-1.34246e-05
-1.57547e-05
-3.2233e-05
-6.28014e-05
-9.50535e-05
-0.000148662
-0.000264347
-0.00041794
-0.000421887
-0.000248829
-0.000121499
-8.18252e-05
-0.000115084
-0.000187208
-0.000257002
-0.000311745
-0.000332669
-0.000308479
-0.000297624
-0.000312349
-0.000312168
-0.000314925
-0.000273712
-0.000162051
-0.000119654
-0.00010982
-5.76454e-05
-2.23488e-06
-4.11465e-06
-1.63801e-06
1.78821e-06
1.86095e-06
3.12277e-06
3.11997e-06
-5.90562e-06
-5.20338e-06
1.30793e-06
1.84089e-06
4.51296e-06
3.57182e-06
1.36515e-06
-3.97797e-06
-5.63659e-06
-1.06664e-06
2.88483e-06
1.1515e-06
-4.9934e-06
-4.08653e-05
-6.55396e-05
8.60827e-08
1.23489e-05
-8.03849e-06
-4.01355e-06
-2.5154e-06
-3.16992e-06
-1.01196e-06
-1.71073e-06
-2.27064e-06
-3.78344e-07
-2.69622e-06
-2.03592e-06
-6.51575e-06
-8.18115e-06
-9.21775e-06
6.45847e-06
3.328e-05
7.45073e-06
6.45097e-06
-4.14036e-07
-4.47908e-06
-4.87085e-06
-4.85809e-06
-3.67175e-06
-4.43185e-07
2.95142e-07
-4.51878e-06
1.32094e-06
1.64854e-06
1.17999e-06
-3.73145e-07
-5.91359e-06
-9.50236e-06
-5.32717e-06
-2.73816e-07
8.79528e-07
3.43547e-07
1.64324e-06
3.88581e-06
-1.52929e-05
5.55267e-06
1.24422e-05
-5.39607e-07
7.2244e-07
4.64477e-07
2.33885e-07
3.65664e-06
5.23588e-06
1.41919e-06
-1.51449e-06
-1.89479e-06
-2.34241e-06
6.53078e-07
1.53675e-06
4.19366e-06
-3.4764e-06
1.57748e-05
2.14081e-05
7.72268e-06
3.11975e-06
-7.46186e-07
-2.53175e-06
-2.665e-06
-2.25216e-06
-1.47989e-06
4.15169e-07
-1.72232e-06
-3.01377e-06
1.27899e-06
-4.16488e-07
-1.5717e-06
-4.05545e-06
-4.43572e-06
-8.18152e-07
1.5636e-07
-1.12076e-07
3.53441e-07
3.48707e-07
3.30274e-06
-2.9503e-06
1.28052e-06
6.1119e-06
3.30928e-06
1.98373e-06
4.43432e-07
-7.63257e-08
2.672e-07
8.57295e-07
1.1445e-06
5.24523e-07
5.92599e-07
-4.9417e-07
-9.72371e-07
2.52434e-07
2.14122e-06
-9.77943e-07
-2.83856e-06
7.98906e-06
3.06107e-06
3.03396e-06
1.33516e-06
-2.62522e-07
-7.78889e-07
-7.80819e-07
-7.65497e-07
-3.53242e-07
3.8253e-07
-2.29311e-06
-5.14709e-07
3.0677e-07
-1.33041e-06
-2.04499e-06
-1.0369e-06
3.1606e-07
1.04424e-07
-5.12512e-08
7.30427e-08
5.15041e-07
1.46006e-06
8.23641e-07
5.99195e-07
2.66606e-06
1.8541e-06
8.52536e-07
1.30424e-07
-4.59009e-09
7.47887e-09
6.88012e-09
1.92887e-08
1.14292e-08
1.86869e-07
4.51312e-07
-3.31545e-07
-1.1948e-07
3.94709e-07
6.74378e-07
-1.82081e-06
-4.53393e-07
3.06188e-07
1.39999e-06
1.26956e-06
1.8619e-07
-2.90629e-07
-2.51164e-07
-1.96742e-07
-2.31769e-07
1.14715e-07
-7.47511e-08
-8.76182e-07
4.7751e-07
-1.4729e-07
-5.47387e-07
-5.68356e-08
1.97034e-07
3.10074e-08
1.62103e-08
1.86349e-08
2.61191e-07
3.9766e-07
9.74229e-07
3.52179e-07
1.12053e-06
8.62849e-07
2.78369e-07
2.09458e-08
-3.03304e-09
-2.07059e-09
-2.93526e-10
1.78501e-10
-3.03374e-09
-1.62634e-08
5.23311e-08
1.18698e-08
-8.88891e-08
6.69322e-08
2.05457e-07
-1.46494e-07
-6.09048e-07
-7.58941e-08
3.39889e-07
5.30841e-07
7.89677e-08
-1.13734e-07
-5.95292e-08
-1.74011e-08
-1.68606e-08
-1.57879e-08
1.5162e-07
-1.05499e-07
1.46663e-07
3.25402e-07
6.70176e-08
5.27722e-08
4.1145e-08
-4.6302e-09
1.88273e-08
1.08468e-08
7.02962e-08
2.51703e-08
3.50588e-07
1.45556e-07
4.07398e-07
3.55442e-07
4.73294e-08
-6.74235e-09
-3.82283e-09
-1.16742e-10
6.24475e-12
-1.38066e-10
-2.77027e-10
-6.03684e-12
-8.21587e-11
5.53312e-09
-1.05791e-08
-8.32709e-11
3.21623e-08
2.09526e-08
-7.86223e-08
-2.34613e-08
1.3175e-08
7.25369e-08
1.45784e-08
-1.29371e-08
-4.88565e-09
-6.12891e-09
1.42003e-09
2.34697e-09
2.45675e-08
3.43901e-08
2.74032e-09
1.27572e-07
6.32082e-08
1.34595e-08
-2.53297e-09
-5.87535e-09
5.23719e-10
2.81919e-09
7.56745e-09
-5.04203e-09
4.19139e-08
4.59415e-08
7.54703e-08
5.41492e-08
-7.52674e-09
-6.88498e-09
-2.02094e-10
1.83601e-11
3.25571e-12
4.67073e-12
-5.23182e-11
-6.87515e-11
5.48067e-12
3.11659e-10
-6.82979e-11
-2.69332e-09
9.11852e-10
6.05027e-09
1.57925e-09
-7.20166e-10
-2.47556e-08
-1.1164e-08
2.02055e-09
1.01449e-09
1.41463e-10
-2.44783e-12
4.00556e-10
4.91492e-10
4.54383e-11
8.07798e-09
5.98907e-11
7.11118e-09
1.6387e-08
5.2466e-09
-1.15814e-10
-2.98444e-10
-1.04381e-10
1.47303e-09
5.0281e-10
-1.53799e-09
-9.95219e-10
1.08809e-08
-1.48099e-08
-1.62348e-08
-5.21782e-09
1.91262e-11
5.14512e-12
9.65329e-14
4.92482e-15
-6.27394e-14
6.49621e-13
1.62202e-12
-1.30006e-12
-3.1834e-12
2.56718e-11
2.66309e-12
7.12238e-12
-2.59957e-11
4.85482e-10
-2.44661e-10
-1.2277e-09
-1.55595e-09
-3.2414e-11
2.7297e-11
3.29236e-12
8.13844e-13
-3.33156e-12
1.72588e-11
1.03164e-11
2.38368e-13
-4.98321e-11
3.89429e-10
4.01255e-10
4.33356e-11
3.47002e-12
-2.41484e-13
-1.3269e-12
1.41033e-11
-4.53108e-11
4.67856e-11
1.27072e-09
5.56374e-10
-4.34962e-09
-4.42573e-09
2.10461e-10
1.21623e-11
-1.20382e-13
-2.41099e-14
-3.23936e-16
4.7889e-16
-4.43217e-15
-2.10813e-14
2.75723e-14
2.05841e-15
-1.04869e-13
6.25845e-15
-8.09569e-14
-1.09411e-12
2.31563e-11
-2.6509e-13
-7.03347e-12
-1.27632e-11
-3.25051e-13
1.73474e-13
9.91287e-15
-2.68507e-15
5.71827e-15
3.79191e-14
3.04851e-15
-7.2962e-15
1.3235e-13
2.11539e-12
2.6808e-12
3.84622e-13
3.35993e-14
5.20308e-15
1.05208e-13
-5.2003e-13
3.61457e-12
-3.26997e-11
3.97817e-12
-4.3477e-11
-9.17761e-11
3.05892e-11
1.64337e-12
-1.94479e-13
-1.577e-14
-4.11178e-16
-1.8465e-18
-1.08835e-18
1.27437e-17
1.37484e-16
-2.48129e-16
1.72272e-16
1.49389e-16
1.54194e-16
-1.55983e-15
8.95901e-15
6.72879e-14
7.55205e-16
-5.77543e-15
-2.11176e-14
2.28849e-15
4.74517e-16
1.66897e-17
6.93057e-18
1.84044e-17
-3.46916e-16
-1.66644e-16
2.50682e-17
-2.42588e-16
1.26337e-14
1.50161e-14
2.5413e-15
1.17542e-16
4.65897e-17
-1.47145e-15
3.6911e-15
-2.45417e-14
2.36545e-13
5.91031e-15
5.90132e-14
4.90777e-13
-4.42628e-13
-1.24695e-13
-8.1857e-15
-1.56144e-16
4.30037e-18
-1.002e-19
3.83688e-19
-3.19805e-20
-2.30741e-19
-1.49537e-20
-1.47593e-18
1.05527e-20
5.58668e-19
-1.17819e-17
9.09288e-17
-1.90784e-16
6.98993e-19
6.50921e-17
7.59676e-17
1.02965e-17
3.66016e-19
3.15521e-20
3.82002e-20
-8.60625e-21
4.66866e-19
2.94729e-19
-1.21017e-19
-3.31432e-18
6.84964e-17
6.9127e-17
2.29614e-18
-2.17015e-18
-2.21116e-19
2.69984e-18
3.83587e-18
-5.70795e-17
-3.72896e-16
4.59518e-17
-1.90571e-15
-2.88022e-14
-1.78802e-14
-1.874e-15
-4.43695e-17
1.86501e-18
4.73338e-20
6.9364e-20
1.75122e-19
9.24124e-20
1.92888e-19
-4.86621e-20
3.14299e-19
-8.02282e-19
3.00811e-20
-2.00198e-19
8.1484e-19
-2.43254e-18
-2.28815e-19
3.06899e-19
1.68292e-19
1.13112e-19
4.18183e-20
9.3355e-20
1.71123e-20
-1.24433e-21
-8.59357e-20
2.93823e-20
5.00335e-21
1.41813e-19
4.7281e-19
3.02417e-19
-2.32959e-19
-6.91825e-20
-1.49082e-19
-2.61831e-19
-6.49476e-20
2.59742e-19
-7.8285e-20
4.68867e-19
-7.76083e-18
-3.07257e-16
-1.10477e-16
-4.22377e-18
2.9868e-19
5.40231e-20
-5.66073e-19
1.81473e-19
1.29597e-19
8.95241e-20
1.13485e-19
1.85872e-19
2.05676e-19
-1.09724e-19
-9.70108e-20
-1.85894e-20
3.43504e-19
3.55009e-19
3.29767e-19
-2.94117e-20
1.19405e-19
1.50681e-19
3.45076e-20
-4.44944e-20
1.54836e-20
-3.90255e-20
-3.58594e-20
1.84941e-20
-1.44598e-19
-3.2592e-19
1.52758e-19
-5.20372e-21
-9.27381e-20
2.51601e-20
-2.24769e-21
3.33525e-20
7.32129e-20
8.51813e-21
7.72142e-20
1.42571e-19
1.64536e-19
-8.06337e-19
2.37361e-19
-1.41734e-19
-4.38005e-19
-3.381e-19
-1.60517e-19
-2.24777e-19
7.4328e-20
2.98514e-20
-1.52251e-19
-1.45153e-19
5.97896e-20
4.31241e-19
-1.46015e-19
-3.908e-20
-7.94596e-20
-1.33033e-21
2.40367e-19
-1.35608e-20
-7.23004e-20
2.12149e-20
2.41662e-20
-1.1321e-19
-7.95446e-20
-1.47719e-20
-1.61609e-20
5.89742e-20
2.59381e-20
-5.90088e-20
2.59366e-19
6.90693e-20
-1.79483e-19
1.19262e-19
9.30937e-20
4.87682e-21
1.73097e-20
3.26659e-20
-7.76822e-20
5.83515e-21
-7.06924e-20
1.6178e-19
5.65997e-20
1.51125e-19
-2.15461e-20
7.18224e-20
6.22094e-21
-7.10561e-20
-2.08761e-19
-2.09548e-20
-6.90362e-20
-2.55759e-19
1.06775e-19
6.63393e-20
1.64503e-19
-9.61134e-20
4.51164e-20
7.61727e-20
5.22969e-20
-9.32513e-20
-4.09067e-20
3.14486e-20
5.87373e-20
-1.08296e-20
1.11718e-20
4.31747e-20
-2.12082e-20
4.31731e-20
6.09749e-20
7.341e-20
1.09531e-19
-8.81566e-20
-8.9692e-21
-9.2563e-21
2.55247e-20
2.98265e-20
-1.52719e-20
4.38828e-20
8.0276e-20
2.20232e-20
-1.18368e-19
9.36248e-20
-2.29317e-19
1.08613e-19
4.13003e-20
1.15224e-19
-1.50291e-20
-1.19809e-19
-6.73697e-20
-1.37925e-19
-6.52111e-20
1.78082e-19
8.65465e-20
-8.64762e-20
4.43192e-20
1.41537e-19
2.83136e-20
-1.38684e-19
-5.56825e-20
2.54616e-20
1.41473e-21
4.64286e-20
-2.30218e-20
4.37683e-20
2.88018e-20
1.29997e-19
-6.64411e-20
6.92454e-20
8.65877e-20
3.4888e-20
1.21122e-20
-8.7188e-21
-7.67116e-21
-1.2027e-19
-9.96705e-20
-7.20912e-20
-5.89931e-21
-3.60192e-20
5.34604e-20
1.01256e-20
7.57294e-20
-3.54589e-20
6.40767e-20
8.93119e-20
-8.38579e-20
-1.24015e-19
-7.95495e-20
-7.78079e-20
-7.88728e-20
-1.35929e-20
-4.90297e-21
1.43042e-19
1.70297e-19
2.32424e-19
-2.6784e-19
7.75077e-20
-1.19395e-20
9.84459e-20
6.9751e-20
1.76722e-19
2.95478e-19
1.44804e-19
1.0926e-19
2.31044e-21
3.61318e-20
-5.38033e-20
-8.35803e-20
6.18381e-21
-6.15782e-20
-2.44793e-20
-1.52648e-20
2.28783e-20
-1.84515e-20
3.79269e-20
-4.97141e-21
5.60296e-21
8.86927e-20
-4.74072e-21
3.81562e-21
-1.94606e-20
-4.0524e-20
4.87615e-22
4.43475e-20
-9.18889e-20
-1.27235e-19
-1.62402e-21
1.59351e-20
2.39074e-20
-5.30651e-21
3.5241e-20
-9.3521e-20
-1.10889e-19
-6.14967e-20
7.79776e-20
2.59487e-20
-5.82847e-20
-2.69516e-20
-8.02072e-20
-3.25237e-20
-7.15176e-21
-2.59028e-20
9.38653e-20
-4.94027e-20
3.77509e-20
-8.11349e-20
-9.61265e-20
-3.36824e-20
6.85777e-21
-1.06568e-19
2.09301e-19
4.87625e-20
-6.55813e-20
-3.56489e-21
-2.64928e-20
-2.19846e-20
8.6794e-20
-3.17464e-20
1.14295e-20
1.06845e-20
-9.22565e-20
-2.98041e-20
-2.71249e-20
5.01629e-20
-3.71751e-20
-6.00896e-20
4.7615e-20
4.37414e-20
-2.37981e-20
2.34603e-20
1.45009e-20
2.38355e-20
-8.03269e-20
3.03632e-20
-2.56575e-20
5.47481e-20
-1.30997e-20
3.18739e-20
-1.61956e-20
5.31094e-21
-4.83009e-20
-6.96704e-20
-6.13422e-20
2.22941e-20
9.2827e-20
-4.74943e-21
1.65753e-20
1.34827e-20
3.8212e-20
-2.1897e-22
8.79873e-20
1.6051e-21
-1.18749e-19
7.91936e-20
4.47842e-20
-1.05702e-20
5.36105e-20
-2.06894e-20
-4.78819e-20
-4.85275e-20
-1.18911e-20
-8.30083e-20
-2.27872e-20
6.40221e-21
-8.6484e-21
-2.17349e-20
1.22323e-20
2.36626e-20
-2.77483e-20
8.5494e-21
4.25359e-20
6.74348e-20
2.24198e-20
1.94501e-20
-3.34199e-20
1.33026e-20
1.02854e-20
4.81101e-21
2.19371e-20
-0.000282017
-0.000213172
-0.0003319
-0.000631722
-0.000928492
-0.00110076
-0.00114568
-0.00110996
-0.00106369
-0.00105668
-0.00115507
-0.00138992
-0.0017175
-0.00205588
-0.002345
-0.00254501
-0.00272358
-0.0030099
-0.00337469
-0.00337375
-0.0023704
-0.000721422
-2.09021e-05
-0.000561475
-0.00120196
-0.00147024
-0.00149838
-0.00153679
-0.00181393
-0.00234779
-0.00294596
-0.00329721
-0.00308314
-0.00224156
-0.00104674
0.000211833
0.000989533
0.000846549
0.000254554
-0.000201706
0.000346167
0.000175056
0.000271477
0.000631301
0.00105043
0.00134458
0.00145282
0.00138762
0.00130543
0.00142743
0.00188183
0.00260669
0.00351512
0.00456342
0.00574775
0.00703185
0.00843211
0.00990617
0.0110041
0.0100881
0.00595776
0.00225117
0.00191833
0.00221533
0.00196664
0.00178883
0.00207354
0.00301856
0.00467822
0.00686473
0.00912238
0.0104151
0.00934707
0.00583973
0.00160947
-0.00136733
-0.00152865
-0.000386031
0.000294778
0.000468163
4.33165e-05
0.000115064
0.00031502
0.00058869
0.000910075
0.00127561
0.00157921
0.00183537
0.00199259
0.00188099
0.00162355
0.00156957
0.00183319
0.00231735
0.0028731
0.00330047
0.00365295
0.00436543
0.00583141
0.00756474
0.00694598
0.00189895
-0.00174121
-0.000197529
0.00224704
0.00377748
0.0042537
0.00392735
0.00362523
0.00389294
0.00479462
0.00610758
0.00715609
0.00706317
0.00557409
0.00248155
-0.00144001
-0.00233796
-0.000968016
-0.000134781
-8.02137e-05
-4.9355e-05
-9.33386e-05
-0.00014842
-0.000178803
-0.000184655
-0.000174236
-0.000142881
-0.000125626
-0.000198469
-0.000374827
-0.000541186
-0.000633487
-0.000724617
-0.000922615
-0.00127381
-0.00168988
-0.00198025
-0.002063
-0.0018939
-0.00147149
-0.00142162
-0.00185187
-0.00136476
-0.000530876
-0.000219121
-0.000424271
-0.000950331
-0.00149393
-0.00184119
-0.00202188
-0.00209155
-0.00196582
-0.00159517
-0.00106508
-0.000534699
-0.000537382
-0.000936542
-0.000832313
-0.000312518
-1.69166e-05
-1.14039e-05
-9.47859e-06
-1.34119e-05
-1.78508e-05
-2.12994e-05
-2.35561e-05
-2.49072e-05
-2.91634e-05
-4.16723e-05
-5.67513e-05
-6.56025e-05
-6.74643e-05
-7.13051e-05
-8.83142e-05
-0.000121944
-0.000157605
-0.000170003
-0.000176403
-0.000197388
-0.000231935
-0.000320857
-0.00036483
-0.000245468
-0.000122629
-7.31661e-05
-0.000112353
-0.000197981
-0.000248703
-0.000243156
-0.000231313
-0.000245234
-0.00026701
-0.000279585
-0.000292557
-0.000283842
-0.000209259
-0.00015999
-0.000177014
-0.000104268
-1.92454e-06
-1.3781e-06
7.91968e-07
5.58557e-06
5.18091e-06
3.2194e-06
1.29568e-06
-4.80698e-07
-1.21223e-06
-6.6768e-07
1.52037e-06
7.50044e-06
1.01973e-05
4.78971e-06
-1.93773e-07
2.01918e-06
4.21852e-06
4.67709e-06
2.34946e-06
-3.96823e-06
6.88483e-06
2.41455e-06
-2.83575e-05
7.72407e-06
5.07609e-06
-5.58519e-06
-1.60017e-06
-1.69602e-06
-9.52569e-07
3.40076e-06
4.47281e-06
-3.21235e-07
-3.98712e-06
-4.39478e-06
-5.02311e-06
-7.4471e-06
-2.70496e-06
1.0631e-05
-6.94319e-06
-4.23463e-05
-6.88501e-06
2.49476e-06
-2.26877e-06
-7.77524e-07
3.51227e-07
2.59583e-07
-1.08246e-07
-1.03524e-06
-2.73263e-06
-3.90316e-06
-4.22866e-06
-2.66049e-06
9.30384e-07
2.62382e-06
3.7882e-06
5.79509e-06
4.07156e-06
1.04942e-06
1.09603e-06
-4.25137e-07
3.40029e-06
1.01999e-05
-1.88489e-06
7.98894e-06
9.90156e-06
-1.79916e-06
-2.24026e-06
-9.75616e-07
-1.1633e-06
-1.3704e-06
-1.33545e-06
-1.30307e-06
-2.86702e-07
1.26209e-06
2.04182e-06
8.36217e-07
-3.18131e-06
8.63794e-07
7.79999e-06
-1.18678e-05
-6.72443e-06
4.10662e-06
-5.49351e-07
-1.70595e-06
-9.89374e-07
-4.69863e-07
-2.33148e-07
2.04511e-07
1.4315e-07
-6.47665e-07
-1.60758e-06
-2.57753e-06
-2.57843e-06
-5.8631e-07
2.81983e-06
3.74473e-06
1.72105e-06
-2.0023e-08
-5.9667e-08
1.49816e-07
3.48215e-07
-5.31929e-07
-9.82366e-07
7.57014e-07
2.61005e-06
7.1143e-07
-3.11118e-07
-4.09137e-07
-7.67465e-07
-1.08821e-06
-9.7088e-07
-7.43606e-07
-1.60358e-07
5.37999e-07
9.07063e-07
1.16382e-06
-2.42134e-07
-2.53303e-06
1.01746e-07
-1.45797e-06
-2.57079e-06
2.86436e-06
1.26889e-06
-5.34042e-07
-5.92765e-07
-3.41758e-07
-1.36759e-07
1.56318e-07
5.50738e-07
5.47238e-07
3.94379e-08
-9.02254e-07
-1.70358e-06
-1.22461e-06
2.46641e-07
8.36051e-07
4.12863e-07
-4.85711e-08
-6.14999e-09
-3.29699e-08
5.18564e-07
-5.42547e-07
-7.5751e-07
8.90181e-08
2.82631e-07
4.76111e-07
1.70823e-07
-2.49677e-08
-1.14141e-07
-1.25855e-07
-6.44898e-08
-2.33544e-08
1.47731e-08
5.89287e-08
9.60988e-08
3.48787e-07
3.41242e-07
-4.30706e-07
-6.12395e-07
-1.40803e-07
-4.22604e-07
1.37697e-06
1.54594e-06
1.08017e-07
-2.09165e-07
-2.48493e-07
-1.92242e-07
-1.04509e-07