/*--------------------------------*- C++ -*----------------------------------*\
| =========                 |                                                 |
| \\      /  F ield         | OpenFOAM: The Open Source CFD Toolbox           |
|  \\    /   O peration     | Version:  5.0                                   |
|   \\  /    A nd           | Web:      www.OpenFOAM.org                      |
|    \\/     M anipulation  |                                                 |
\*---------------------------------------------------------------------------*/
FoamFile
{
    version     2.0;
    format      ascii;
    class       volScalarField;
    location    "50.4676134421789371";
    object      MDu2;
}
// * * * * * * * * * * * * * * * * * * * * * * * * * * * * * * * * * * * * * //

dimensions      [0 1 -2 1 0 0 0];

internalField   nonuniform List<scalar> 
60000
(
0.000939621
0.00212328
0.00267072
0.00200839
0.000763611
-1.61523e-05
-0.000269126
-0.00056798
-0.000992954
-0.00114492
-0.000742454
-1.54447e-05
9.26199e-05
-0.000424657
-0.000542083
7.85667e-05
0.000718814
0.000371643
-0.00159545
-0.00514809
-0.00954517
-0.0132379
-0.0150638
-0.0163507
-0.0195753
-0.0238033
-0.0253417
-0.0202619
-0.0103571
-0.00439434
-0.00527678
-0.00733797
-0.00759658
-0.00487973
0.000407633
0.00286582
5.04323e-05
-0.00175015
-0.00134774
-0.000303106
0.00291676
-0.000279617
-0.00266266
-0.00306453
-0.00200796
-0.000618309
0.000460308
0.00148737
0.0030262
0.00470215
0.00529709
0.00411589
0.00232815
0.00160041
0.00202102
0.00266043
0.0031084
0.00377808
0.00522816
0.00810975
0.0122403
0.0171658
0.0216254
0.0262762
0.0333882
0.0412837
0.0449281
0.0392034
0.0252854
0.013099
0.00967893
0.0113968
0.0135174
0.0130593
0.00780846
0.00107295
-0.000220127
0.00222892
0.00445806
0.0048124
0.000315248
0.000506459
0.000581405
0.000554658
0.000170019
-0.000318894
-0.000481748
-0.000467759
-0.000526069
-0.000403537
-9.19791e-05
9.09515e-05
-8.84409e-05
-0.000416559
-0.000482813
-0.000283494
-0.000112782
-0.000348874
-0.000896584
-0.00126099
-0.00127751
-0.000850895
-9.93393e-05
0.000291819
0.000133699
-0.000314506
-0.000546667
-0.000473403
-0.000639597
-0.00122211
-0.00184146
-0.00201388
-0.00171626
-0.00122888
-0.000608401
-0.000210711
-0.000575682
-0.00108949
-0.000809276
-0.000139516
-0.0017134
-0.000995408
-0.00034494
0.00014381
0.000484132
0.000360812
-9.31382e-05
-0.000449322
-0.00086015
-0.00134795
-0.00157177
-0.00145808
-0.00101264
-0.000592516
-0.000687913
-0.00115457
-0.00157336
-0.00174013
-0.00167388
-0.00159237
-0.00169441
-0.00238392
-0.00329296
-0.00431479
-0.00570206
-0.00705998
-0.00767906
-0.00718732
-0.00571647
-0.00379979
-0.00246688
-0.00253053
-0.00330052
-0.00379246
-0.00334501
-0.0018458
-0.000257738
-0.000391397
-0.00157326
-0.00201983
-0.000423004
-0.00021141
9.56735e-06
0.000130419
0.000238429
0.000315962
0.000250823
8.22681e-05
-7.42908e-05
-0.000249941
-0.000351218
-0.000286191
-0.000100806
9.92373e-05
6.96647e-05
-0.00017654
-0.000369773
-0.000276832
-9.17466e-06
0.000115294
6.83246e-05
-0.000264019
-0.000714397
-0.00101838
-0.00115213
-0.00114425
-0.00106255
-0.000871203
-0.000466631
6.88723e-05
0.000483479
0.000527434
0.000193472
-0.000181381
-0.000308614
1.10447e-06
0.000439292
0.000478637
5.38779e-06
-0.000410627
-4.95829e-05
-2.82833e-05
1.39766e-05
3.7307e-05
4.60716e-05
6.01246e-05
7.23961e-05
5.76134e-05
2.6924e-05
-6.41602e-06
-3.77516e-05
-3.49904e-05
-9.07769e-06
1.99053e-05
2.16863e-05
-2.3675e-05
-7.00915e-05
-3.7346e-05
5.91665e-05
4.42941e-05
4.31014e-05
2.7507e-05
-9.92312e-05
-0.000180554
-0.00012902
-6.8348e-05
-5.64653e-05
-6.99527e-05
-4.66868e-05
3.86876e-05
0.000121916
0.000160152
0.000161822
0.000142708
9.87234e-05
7.29331e-05
0.000111667
0.000127998
8.25673e-05
-6.42116e-06
-1.54897e-06
-1.83806e-06
-2.46222e-07
-5.3182e-07
-3.00292e-06
-5.98209e-06
-2.86691e-06
5.49814e-06
7.84794e-06
5.84908e-06
-1.32447e-06
-3.55924e-06
1.07278e-06
-1.55508e-06
-6.90272e-06
-5.9918e-06
-1.24577e-05
-2.31223e-05
2.34587e-05
1.73194e-05
-5.13271e-05
7.40634e-06
5.57458e-06
-9.69609e-06
4.54366e-06
5.88996e-06
5.87849e-06
-9.14077e-07
-1.73518e-05
-1.36692e-05
7.00373e-06
1.0156e-05
-1.10214e-06
-2.92413e-07
2.33794e-05
2.63977e-05
1.26111e-05
5.70749e-06
6.30168e-06
6.30289e-06
8.36951e-07
1.22041e-06
1.67226e-06
8.00141e-07
-5.30029e-07
-2.68817e-06
-5.29116e-06
-4.93538e-06
-2.54231e-06
-9.86627e-07
2.57633e-07
-9.96303e-07
1.00958e-06
1.44886e-06
6.61151e-07
1.01281e-05
1.37006e-05
-8.05468e-06
2.45479e-06
3.45783e-05
-1.76807e-05
-7.14309e-06
2.28377e-05
1.87348e-05
1.24556e-05
3.81315e-06
1.50751e-06
3.83725e-06
2.71062e-07
-8.9869e-06
-8.26883e-06
7.01344e-07
1.09818e-07
-1.01102e-05
-1.30638e-05
9.53699e-07
2.15733e-06
-3.17542e-06
-4.71812e-06
-1.26883e-06
-2.04715e-07
4.63737e-09
2.27889e-07
3.84508e-07
4.84978e-07
4.75409e-07
-1.80893e-07
-1.13468e-06
-1.57249e-06
-1.61154e-06
-9.7364e-07
-6.27448e-07
-1.69956e-07
9.09744e-07
2.99037e-06
9.50609e-06
1.28047e-05
2.48337e-06
-2.87224e-06
1.99058e-05
2.35375e-05
-1.34349e-06
1.18174e-05
1.05865e-05
3.87094e-06
1.10216e-06
-1.10798e-07
-8.80743e-08
1.56246e-06
4.25684e-08
-3.8761e-06
-3.54053e-06
4.37962e-07
1.55706e-07
-3.82276e-06
-3.8626e-06
-6.01047e-07
-1.44324e-06
-1.8012e-06
-1.14131e-06
-1.77123e-07
-2.24385e-07
-2.76079e-07
-8.87561e-08
1.19434e-07
2.21575e-07
3.29367e-07
2.11895e-07
-1.00146e-07
-2.53914e-07
5.70295e-08
2.23104e-07
-1.27337e-07
3.8373e-07
1.38855e-06
2.33086e-06
3.33299e-06
2.70782e-06
-4.96736e-07
4.28912e-06
1.84776e-05
1.06802e-06
-3.80979e-06
1.74012e-06
4.76444e-07
2.7683e-07
2.805e-07
-1.45515e-07
-1.4279e-07
3.82376e-07
2.187e-08
-1.12711e-06
-1.06788e-06
3.49462e-08
-4.06329e-08
-7.46265e-07
-6.13787e-07
-4.25298e-07
-4.58393e-07
-2.9939e-07
-4.66323e-08
-1.04869e-07
-1.43049e-07
-5.27907e-08
3.07366e-08
2.28913e-08
2.12846e-08
4.92158e-08
3.40192e-08
-9.81887e-09
1.68566e-07
6.36692e-07
1.42505e-07
1.42305e-07
6.00044e-07
3.03131e-07
1.24449e-07
8.90357e-07
2.78132e-07
1.77898e-07
5.10351e-06
6.71975e-07
-6.97636e-06
-2.12814e-06
-2.10562e-07
8.16454e-08
3.71729e-08
5.86117e-08
-4.14005e-08
-2.57114e-08
9.12366e-08
4.26466e-08
-1.89956e-07
-1.76176e-07
-5.44948e-09
-3.35595e-08
-1.15658e-07
-1.00707e-07
-8.37637e-08
-6.59184e-08
-5.48044e-09
-2.59948e-08
-3.76824e-08
-8.98702e-09
6.54222e-09
2.99641e-09
4.09871e-09
7.07202e-10
7.21912e-09
3.63635e-09
2.30275e-08
2.11335e-07
1.43298e-07
8.42397e-09
1.98652e-07
9.57106e-08
-1.6523e-07
1.41207e-07
1.59463e-07
-2.12208e-08
5.99878e-07
3.05172e-07
-3.30939e-06
-1.86911e-06
-2.2552e-07
3.02519e-08
1.76886e-08
1.5428e-09
1.64093e-08
-2.51582e-09
-3.61865e-09
6.12248e-09
3.31847e-08
-7.87292e-09
-1.23833e-08
1.1817e-10
-1.19032e-08
-1.73473e-08
-1.49519e-08
-8.11323e-09
-2.89661e-11
-2.02574e-09
-3.28868e-09
-4.80206e-10
1.59652e-10
1.11646e-10
1.28791e-10
-1.16594e-11
3.46784e-10
7.61073e-10
5.59924e-10
3.58514e-08
3.99937e-08
-2.85299e-08
2.99959e-08
4.88697e-08
-3.37308e-08
-2.81802e-08
4.44057e-08
-5.97902e-09
4.42132e-08
8.03798e-08
-8.06521e-07
-6.391e-07
-6.37304e-08
2.67541e-09
6.54808e-09
4.74306e-10
1.41962e-11
1.29087e-10
-2.0038e-10
-1.99965e-10
1.11163e-10
3.12329e-10
-5.52313e-11
-4.14162e-12
-2.12817e-11
-5.9198e-10
-3.77495e-10
1.9915e-10
-2.02192e-11
-9.26911e-11
-8.10703e-11
-6.7725e-12
-1.11521e-12
-1.52171e-13
-1.03624e-12
5.7095e-12
-3.46342e-12
1.4091e-10
1.15032e-11
9.92632e-09
3.80607e-09
-2.70333e-08
-3.33818e-09
1.10581e-08
1.70962e-09
-5.62275e-09
9.07621e-09
1.38194e-09
9.48737e-09
2.12838e-08
-9.49022e-08
-8.63546e-08
-1.69712e-08
-3.91692e-09
-2.24898e-11
8.87651e-13
-6.39019e-14
-5.8053e-13
6.04643e-13
7.43013e-13
-4.64018e-13
-1.68658e-12
2.27556e-13
-3.04955e-15
9.10442e-13
-2.39943e-11
-4.25717e-12
-1.09457e-12
-1.733e-13
1.29285e-13
5.9972e-13
-6.10015e-14
-3.05601e-14
-4.02206e-15
-7.08402e-16
3.08129e-14
-1.15523e-13
-7.58382e-12
1.10209e-10
3.0056e-10
1.30778e-09
-2.54441e-09
-6.50301e-10
3.29694e-11
-3.44022e-10
-5.08592e-10
4.09014e-10
4.50936e-09
1.04407e-09
6.2711e-09
-8.76291e-09
-8.48922e-09
-8.13758e-09
-3.24747e-10
-6.12341e-12
1.02449e-13
1.21636e-14
2.27093e-15
-1.0073e-15
-1.58955e-15
1.04738e-15
6.36208e-15
-5.95303e-16
-3.73947e-16
1.67051e-15
-3.75492e-14
-4.00955e-14
1.1378e-13
-5.12968e-16
-4.24471e-15
-1.32922e-15
-2.44734e-15
-4.1528e-16
-3.11047e-17
9.2787e-18
-1.46813e-16
6.81242e-16
4.99985e-15
8.07642e-14
5.29773e-12
-1.16957e-10
-1.82154e-10
-1.40072e-11
-1.23841e-13
-4.03266e-14
-1.50386e-11
-5.42227e-11
2.86986e-11
6.94606e-12
3.14508e-11
-5.11797e-10
-4.83838e-10
-6.29808e-11
-1.37318e-12
-1.10614e-15
-5.58633e-16
-5.92357e-17
-4.473e-18
8.30302e-19
2.3828e-18
-1.60898e-18
-1.43045e-17
1.32264e-18
3.59311e-18
1.26781e-18
-3.32232e-17
-1.9251e-16
6.9926e-16
3.45681e-18
-5.7808e-17
-1.13145e-16
-3.97836e-17
-4.18325e-18
-5.66345e-19
-7.47413e-20
9.90339e-20
-9.23611e-19
3.92534e-18
-1.51839e-16
1.97084e-14
-5.0206e-13
-1.39796e-12
-1.69438e-13
-8.58251e-16
1.23286e-15
-1.21098e-14
1.85166e-13
-1.62669e-13
-1.5008e-13
6.85381e-15
-9.99401e-13
-1.62646e-12
-1.78357e-13
-4.45028e-15
-4.60134e-17
-1.11658e-18
6.65472e-19
-2.0224e-20
1.28263e-19
8.06893e-20
-6.19706e-20
-9.44011e-19
1.10856e-19
1.02417e-18
9.32075e-19
-3.08607e-19
-5.81442e-19
1.70466e-18
-6.19241e-20
-8.54825e-20
-2.32259e-19
-6.25611e-19
-4.88204e-19
-5.62962e-19
2.1994e-21
-9.34259e-20
9.66953e-20
4.87312e-21
-4.92515e-19
6.03129e-17
-1.65153e-15
-8.41051e-15
-1.2162e-15
3.31661e-17
9.25457e-18
2.53329e-17
-4.63022e-16
3.3733e-16
2.478e-16
-4.21027e-17
9.71025e-16
1.86139e-15
3.51117e-16
1.19577e-17
-1.14992e-18
1.71208e-19
3.54342e-19
-2.08306e-19
-1.11982e-19
-2.87615e-21
3.82267e-20
-6.51054e-19
-7.23688e-21
4.20666e-20
5.93382e-19
-4.85068e-19
-1.79554e-19
2.89411e-20
-3.60155e-20
7.95797e-20
-2.57862e-20
-5.23837e-19
-4.76162e-19
1.60655e-20
-4.98429e-20
5.09971e-20
1.64146e-20
6.04669e-21
-3.32818e-19
-3.06354e-19
-3.01544e-18
-4.40554e-17
-5.39701e-18
3.28235e-19
-4.48245e-19
-9.32147e-20
1.30813e-18
-4.47709e-19
-1.45514e-19
-2.71126e-19
8.60251e-18
3.00521e-17
6.1976e-18
1.64828e-19
-1.00599e-18
-2.38629e-19
-1.35753e-19
4.51946e-19
-1.31052e-19
-9.24309e-20
5.17058e-19
-7.14691e-19
-4.39071e-19
-2.01505e-19
6.76635e-19
5.8253e-19
-5.63654e-19
3.08105e-19
-2.57291e-20
-6.33356e-20
-2.0272e-19
3.32562e-19
1.0585e-19
6.47269e-20
1.12156e-19
4.55279e-20
1.55268e-20
-3.0468e-20
-3.21894e-19
7.49108e-19
-7.94198e-19
-8.75824e-19
-7.07815e-20
-3.24742e-19
1.10597e-19
-2.33684e-20
-8.18215e-20
8.60639e-20
4.957e-20
1.03092e-20
5.33685e-20
-1.31081e-21
-1.41915e-19
4.10527e-19
2.93913e-19
-5.04624e-20
-3.09843e-19
-3.84137e-19
2.57375e-19
6.11995e-20
-1.53647e-19
1.14433e-18
5.26283e-19
-3.50551e-19
-3.00631e-19
6.55065e-19
1.98788e-19
8.1952e-20
-3.65398e-22
1.30796e-19
5.2919e-21
1.27595e-19
-4.63073e-20
-7.83299e-21
2.57696e-20
-4.12236e-20
-1.3048e-19
-1.406e-19
1.31949e-19
1.7458e-19
3.24042e-20
3.68071e-20
7.46488e-20
1.35924e-19
4.13712e-20
8.95361e-20
7.19149e-21
-2.75136e-19
-4.03751e-20
1.08051e-19
-1.7027e-19
6.49213e-20
2.2635e-19
1.47866e-19
-1.62365e-20
-3.06234e-20
-2.58267e-19
-9.03088e-19
-7.26521e-21
1.45582e-19
-6.48216e-20
1.67828e-19
6.0382e-19
-6.40006e-20
-1.96812e-19
-2.95019e-19
7.71193e-20
-3.63734e-19
-3.08011e-20
1.40262e-19
4.33637e-20
8.79426e-20
2.90116e-21
1.7697e-20
7.79448e-21
-1.29939e-19
-3.06564e-20
1.84497e-19
1.62581e-19
-2.21849e-19
5.9526e-20
1.98477e-20
-2.07036e-19
8.62665e-20
-1.87892e-20
7.44366e-20
8.12664e-21
-9.19017e-20
2.75694e-20
-1.3536e-20
-5.04322e-20
-9.57786e-20
-1.01867e-19
-1.49623e-19
-1.01842e-20
-2.0692e-19
9.05569e-20
1.82714e-19
-4.48435e-20
-2.20134e-20
2.00814e-20
-2.83198e-20
2.9363e-20
2.54715e-19
-3.00365e-20
-3.35525e-20
-1.9885e-20
-8.07249e-20
-8.44841e-20
-3.38523e-19
-6.48343e-20
3.58725e-20
-5.15918e-22
-2.09525e-20
-2.10528e-20
1.91471e-19
1.22198e-19
9.74477e-20
-1.77605e-19
-3.39151e-20
-2.53073e-20
4.1032e-20
-3.37047e-21
-4.01789e-19
2.19984e-20
1.87456e-19
2.09138e-20
1.0343e-20
-1.08595e-20
-1.27167e-20
1.46693e-19
-3.27629e-20
-1.41593e-19
3.23922e-20
2.43625e-19
6.09204e-20
6.69783e-20
1.31308e-19
-9.59722e-20
3.23938e-20
5.31756e-20
-4.15299e-20
-1.93699e-20
-6.87153e-20
1.56995e-19
3.65894e-21
-6.06712e-20
-3.56379e-20
-4.93656e-22
-1.36683e-20
4.04294e-20
-2.79417e-20
-1.27687e-19
-3.0176e-19
4.30512e-19
9.1941e-19
-1.74041e-19
-3.76683e-19
6.41635e-20
6.89005e-20
7.86903e-20
-1.97521e-20
1.04456e-20
4.22844e-20
6.67785e-21
-8.54091e-20
-2.40149e-20
-2.04047e-20
-2.35062e-20
1.69852e-20
-1.69079e-20
4.61744e-20
9.87319e-20
1.03016e-19
2.07409e-19
-3.48493e-21
-1.92716e-20
-2.96644e-20
1.6401e-21
5.71492e-20
-5.26923e-20
-1.2269e-20
4.98698e-20
-2.20626e-20
3.7347e-20
9.36167e-20
8.24402e-20
4.08781e-20
-1.56183e-19
4.31994e-20
1.01935e-19
2.23933e-20
3.09707e-20
-2.45997e-19
-5.46082e-19
-8.94097e-19
2.28108e-19
5.87642e-19
1.26388e-19
-1.08159e-19
1.13114e-19
2.74455e-19
1.44546e-20
-2.33746e-19
-4.14419e-20
7.30266e-20
-2.22614e-20
6.76601e-20
1.06518e-20
-2.62405e-19
-1.69094e-19
1.61782e-19
-6.33509e-20
-9.04528e-20
2.68346e-20
-1.34132e-20
-1.7065e-20
-2.08203e-23
4.97007e-20
-1.18783e-19
-5.68192e-20
-9.07972e-20
-1.468e-19
-3.544e-19
1.34597e-19
1.455e-19
1.23928e-19
-1.69444e-19
-0.000466379
-0.000383916
-0.000213452
-0.000435117
-0.000887895
-0.000990258
-0.000734219
-0.000653905
-0.00127304
-0.00212282
-0.00282042
-0.00378111
-0.00516718
-0.00666236
-0.00789844
-0.00873967
-0.00909633
-0.00880687
-0.0078343
-0.00655945
-0.00750494
-0.0113258
-0.0136464
-0.0131874
-0.012364
-0.0123181
-0.0118218
-0.0106916
-0.0112665
-0.0146681
-0.0189053
-0.0216162
-0.0202568
-0.0123901
0.00161885
0.010593
0.00428693
-0.000203992
-0.000462382
-0.000365686
0.00105729
0.000821009
0.000836536
0.00183268
0.00340916
0.00467649
0.00494612
0.00416465
0.0035117
0.00400531
0.00538045
0.00730985
0.00971215
0.0125338
0.0156877
0.0187631
0.0211375
0.0223316
0.0217598
0.0177197
0.0123415
0.0119812
0.0160041
0.0199833
0.0233255
0.0261427
0.0262504
0.0235022
0.0217651
0.0241088
0.0292411
0.0338223
0.0339974
0.0266864
0.0106806
-0.00864413
-0.0130421
-0.0060812
-0.00127837
0.000583654
-2.48934e-05
-9.17511e-07
-8.07035e-05
-0.00024134
-0.000488809
-0.000655263
-0.00060143
-0.000483578
-0.00049959
-0.000628834
-0.000630068
-0.000567632
-0.000599748
-0.000670579
-0.000678401
-0.000709766
-0.000942362
-0.00127496
-0.00137939
-0.00131532
-0.00192542
-0.00272933
-0.00223158
-0.000861035
0.000205465
0.000724582
0.000761197
0.000360427
-0.000256653
-0.000692333
-0.00080481
-0.000642684
-0.000438122
-0.000590228
-0.000940686
-0.000145839
0.000301381
-0.000827728
-0.000679926
-0.000237582
-0.00031823
-0.000229075
-0.000288977
-0.000591329
-0.000994484
-0.0013652
-0.00152135
-0.00131453
-0.000900172
-0.000807738
-0.00110903
-0.00145753
-0.00182916
-0.00233567
-0.00304078
-0.00385667
-0.00459031
-0.00506619
-0.00519895
-0.00446651
-0.00250815
-0.00110718
-0.00188981
-0.00317112
-0.0042096
-0.00522893
-0.00569037
-0.00538728
-0.0048969
-0.00489972
-0.005569
-0.00642213
-0.00677353
-0.00622617
-0.00473416
-0.00141082
0.00335402
0.00375068
0.00103436
-0.00018342
-7.75095e-05
-5.68266e-05
-4.34759e-05
-0.000102183
-0.000171483
-0.000217788
-0.000235213
-0.000175634
-6.08072e-05
-1.27592e-05
-0.000112829
-0.000261176
-0.000368632
-0.000496479
-0.000688742
-0.00086018
-0.000885109
-0.000794371
-0.00066291
-0.000343113
0.00029982
0.000833418
0.000436149
-0.00040235
-0.000885752
-0.00102973
-0.000916806
-0.000639027
-0.000370807
-0.000297811
-0.000482127
-0.000777744
-0.000937596
-0.000821392
-0.000371436
0.000491361
0.00152835
0.00180808
0.000879229
0.000107064
5.55594e-06
-5.24e-06
-5.99211e-06
-1.39026e-05
-2.14389e-05
-2.04419e-05
-1.311e-05
-3.44e-06
2.52469e-06
1.30178e-05
6.6781e-06
-2.26632e-05
-5.00956e-05
-7.25743e-05
-9.8968e-05
-0.000106978
-7.82914e-05
-5.46085e-05
-4.85363e-05
3.10101e-06
0.000110295
0.000179239
0.000178988
1.4026e-05
-0.00011835
-0.000122808
-8.26814e-05
-4.65624e-05
-8.01608e-06
1.25496e-05
-3.85165e-07
-3.24816e-05
-5.20941e-05
-3.77857e-05
2.64497e-05
0.000152715
0.000284245
0.000345218
0.000265074
8.25633e-05
6.7245e-06
4.22373e-06
9.26252e-07
-1.72275e-06
-1.11417e-06
-6.68173e-07
-1.78876e-06
2.66211e-06
6.27449e-07
-2.79679e-06
1.00578e-06
-1.02151e-06
-4.05076e-06
-4.0727e-06
-1.71882e-06
5.78612e-07
4.7496e-06
4.70017e-06
-2.03377e-06
-2.30261e-06
2.86528e-05
1.06472e-05
4.65701e-06
1.40694e-05
2.00491e-06
-1.63259e-06
-6.55503e-06
-1.14263e-05
-1.00909e-05
-3.92406e-06
-3.27939e-07
-1.09185e-07
2.22377e-08
-1.95022e-06
2.80545e-06
1.68354e-05
1.33839e-05
-9.8547e-07
2.05038e-05
2.57126e-05
-2.77033e-07
1.73175e-06
3.9326e-06
3.70286e-06
4.22653e-06
3.55981e-06
6.08085e-07
7.62625e-07
4.87385e-06
-2.56668e-06
-1.37467e-06
1.6108e-06
2.48725e-06
6.03994e-06
1.08738e-05
8.36934e-06
2.7844e-06
1.89683e-06
1.72421e-06
-3.37408e-07
1.07814e-05
1.05798e-05
-1.14272e-05
5.7661e-07
8.76388e-06
6.32272e-06
1.68279e-06
-1.76134e-06
-5.03512e-06
-5.58418e-06
-1.08539e-06
3.0907e-06
3.72901e-06
2.86607e-06
-1.14071e-06
3.67711e-06
1.80534e-06
-1.676e-05
-2.49226e-05
-7.83848e-06
-4.6066e-06
-1.43343e-06
1.66208e-06
3.11067e-06
3.33338e-06
2.65536e-06
1.27165e-06
-1.77138e-07
3.16329e-06
2.42204e-06
-1.9755e-06
1.74224e-06
3.02362e-06
4.60399e-06
6.45823e-06
3.56468e-06
3.28689e-07
1.67311e-07
5.30826e-07
9.02043e-07
2.83548e-06
1.14665e-05
-4.44004e-07
-2.27037e-06
2.31813e-06
1.56149e-06
3.55849e-07
-2.15359e-07
-6.0358e-07
-1.30968e-06
-1.53198e-06
-7.03195e-07
-8.86718e-07
9.49909e-07
3.67254e-07
4.10822e-07
2.97937e-06
-2.84434e-06
-1.1654e-05
-1.14064e-05
-3.40526e-06
-2.09097e-06
-5.23016e-07
1.07804e-06
1.55084e-06
1.28767e-06
9.94467e-07
1.42136e-07
4.34211e-07
2.5974e-06
-6.34948e-08
3.07657e-07
2.39955e-06
3.01645e-06
2.77003e-06
1.1088e-06
3.53754e-08
9.15881e-09
1.10693e-07
3.20189e-07
6.59362e-07
6.1933e-06
2.17711e-06
-1.95489e-06
3.25819e-08
7.96924e-08
3.2904e-08
-5.31646e-08
-4.51792e-08
-6.3309e-09
-7.70898e-08
-2.64524e-08
-3.90714e-07
-6.57321e-07
3.2531e-07
-6.11166e-08
8.99163e-07
4.56426e-07
-1.95673e-06
-3.74998e-06
-1.09273e-06
-1.41115e-06
-1.06224e-06
1.47097e-07
6.66151e-07
4.91467e-07
3.51866e-07
2.32134e-07
-2.41285e-08
6.60115e-07
7.64198e-07
-2.66882e-07
8.64038e-07
1.50657e-06
1.11426e-06
3.83036e-07
2.35369e-08
-5.91114e-08
1.46619e-08
-1.71602e-08
1.97973e-07
2.46418e-06
1.1338e-06
-1.40152e-06
-5.14596e-07
-9.57686e-08
-1.99093e-09
1.38085e-08
-5.58032e-09
1.39897e-09
1.24019e-09
3.19934e-08
7.5146e-08
-1.5375e-07
-9.96942e-09
1.57865e-08
1.00142e-07
2.56355e-07
-1.35206e-07
-5.58559e-07
-1.98801e-07
-4.4397e-07
-4.83057e-07
-1.62241e-08
2.29414e-07
1.10593e-07
2.49255e-08
6.17812e-08
9.60223e-09
6.87534e-08
2.67148e-07
-1.11759e-07
1.00345e-08
3.14063e-07
2.30033e-07
1.05745e-07
3.36234e-08
-4.16838e-08
-6.46443e-09
-4.4803e-08
3.01053e-08
8.33715e-07
3.92047e-07
-8.45866e-07
-3.79495e-07
-4.08443e-08
1.03369e-08
1.39117e-08
2.00472e-09
-1.56582e-11
-9.52726e-10
-3.09002e-09
7.99025e-09
2.53319e-09
-1.95482e-08
5.37782e-09
1.1715e-09
5.6398e-08
1.21866e-08
-4.06095e-08
-2.18918e-08
-8.96226e-08
-1.21191e-07
-1.38331e-08
4.08133e-08
1.13253e-08
8.68121e-10
1.70592e-09
2.49415e-09
7.9265e-09
4.25082e-08
-8.04799e-09
-6.22827e-08
2.6846e-08
4.13436e-08
2.12872e-08
1.59963e-08
-7.33825e-10
-7.93341e-09
-1.30385e-08
-1.24625e-08
2.32913e-07
1.21593e-07
-3.13208e-07
-1.09005e-07
-6.79736e-09
6.49132e-09
7.94329e-10
1.11299e-10
1.13725e-11
1.20916e-11
-1.4217e-10
-3.61181e-10
9.07124e-10
-2.28903e-09
5.36377e-11
-4.64023e-09
3.78377e-09
9.02338e-09
1.17378e-10
-4.07023e-10
-2.83576e-08
-4.09511e-08
-1.95464e-09
1.94119e-09
4.76091e-10
2.80905e-11
1.01559e-10
-1.71738e-10
2.30654e-10
9.43861e-09
1.36948e-09
-7.11558e-09
-1.51746e-09
1.01841e-08
6.30513e-10
1.28744e-09
6.04067e-10
-8.05585e-09
-8.99018e-10
-3.35709e-09
5.62429e-08
2.42163e-08
-5.44388e-08
-1.94618e-08
-1.51683e-09
1.44518e-10
2.05198e-11
1.41029e-12
2.64909e-14
-8.14729e-14
5.35307e-13
2.17007e-12
-6.9805e-12
2.1995e-11
-5.1497e-11
2.00417e-12
4.69346e-11
5.30214e-10
5.53055e-10
-1.72232e-10
-4.07508e-10
-4.71055e-10
-1.79026e-11
4.52311e-12
4.7484e-13
8.24224e-14
8.75389e-14
-1.13656e-11
-2.17167e-11
7.21512e-12
-3.59841e-10
-1.03954e-09
-2.43221e-10
4.30804e-11
2.68447e-11
-4.75784e-12
5.78863e-11
-2.5772e-11
4.36491e-12
2.02299e-10
1.40664e-08
1.11519e-09
-4.78466e-09
-7.40832e-09
-4.31485e-10
-7.69998e-13
1.38178e-12
9.08923e-14
3.2799e-15
4.42382e-16
-3.99109e-16
-4.0082e-15
2.92631e-14
-1.11757e-13
2.08069e-13
-3.0616e-15
-6.94023e-14
4.93889e-12
-5.3909e-11
-9.9747e-13
-1.39967e-12
-8.08966e-13
-2.31354e-13
-3.3601e-14
-1.90507e-15
4.64585e-16
1.07179e-15
2.63476e-15
7.65011e-14
3.17067e-14
-8.73742e-13
-8.13018e-12
-3.24068e-12
9.50258e-14
6.39754e-14
4.77253e-14
-5.75165e-13
9.69876e-13
-2.43416e-12
-4.11362e-11
4.53902e-11
-3.32823e-10
-7.227e-10
-1.94759e-10
-4.36015e-12
4.34254e-13
3.13105e-14
9.85161e-16
1.78764e-17
-9.96126e-19
-2.8494e-18
-3.32486e-17
-3.61755e-17
3.25267e-16
-4.88943e-16
-1.60181e-16
1.27535e-16
1.65273e-14
-1.79804e-13
-3.87172e-15
-1.06021e-14
-1.22554e-14
-3.65684e-15
-3.45305e-16
-1.18956e-17
-4.72245e-18
-1.71378e-17
1.58133e-16
-2.03301e-16
-1.55453e-16
9.24899e-16
-5.70945e-14
-3.27819e-14
-3.23295e-16
3.57738e-16
-2.18178e-16
3.89806e-15
-1.02227e-14
2.98918e-14
9.46218e-14
1.98836e-14
-1.07562e-12
-5.01983e-12
-6.60712e-13
8.41219e-14
8.42307e-15
2.91992e-16
4.77217e-18
4.82581e-19
-4.39653e-19
3.80277e-21
1.44406e-19
-1.20591e-19
-4.66097e-19
1.38164e-18
-4.39032e-20
8.24997e-18
2.71778e-17
-4.42189e-16
-9.59301e-18
-4.85954e-17
-9.78646e-17
-1.69357e-17
-1.01682e-18
1.84452e-20
8.20396e-20
-2.49108e-20
-3.73333e-19
4.70467e-19
-3.19509e-21
2.30055e-17
-3.82832e-16
-3.36088e-16
3.4558e-18
5.30343e-18
1.2422e-18
-7.71999e-18
3.45886e-17
-5.37573e-17
-2.74449e-16
3.06021e-17
-1.23623e-15
-2.19337e-15
7.55241e-15
1.22084e-15
4.89089e-17
5.5152e-19
-4.10988e-19
4.18128e-19
1.59637e-19
-1.18815e-19
-2.29282e-19
-2.55032e-19
8.69635e-20
-6.2202e-19
3.92808e-19
3.37222e-20
-8.35026e-19
-9.46209e-19
2.30479e-19
1.05566e-19
-1.78366e-19
-4.62216e-20
1.40351e-19
1.02135e-19
3.9323e-20
1.69397e-19
2.44998e-20
-6.73625e-21
-3.23054e-19
1.4799e-19
-3.5466e-18
-2.74085e-18
2.96317e-19
-1.11405e-19
3.46004e-20
-2.13498e-19
-1.05508e-19
-5.19096e-20
3.6313e-19
2.30527e-20
2.25818e-18
1.30414e-16
6.98392e-17
6.62322e-18
1.25041e-20
-4.08129e-19
3.06671e-19
-2.6166e-19
2.14063e-19
-7.64507e-20
-6.46965e-19
-1.42119e-20
4.96848e-19
-4.2364e-20
-1.40374e-19
7.73505e-19
-4.6917e-19
-3.70016e-19
1.36161e-19
1.81647e-19
-4.60183e-20
-9.63272e-20
-1.63879e-19
-2.2735e-20
-2.65686e-20
2.33324e-20
1.4158e-20
-3.13399e-20
-3.69063e-19
-3.00969e-19
2.84792e-19
5.00469e-19
8.35727e-20
1.33382e-19
8.43047e-20
-7.77291e-20
-6.01634e-20
-1.13741e-19
-5.47934e-20
1.13244e-19
-3.94809e-22
6.03559e-19
3.06524e-19
1.68533e-19
8.81207e-20
-2.32353e-20
2.44827e-19
4.76413e-19
-1.26044e-19
-1.30166e-19
1.19835e-18
1.01113e-18
-2.0154e-18
-2.47165e-19
-6.71122e-20
-1.12252e-20
2.85307e-19
-4.41269e-19
3.43658e-20
-4.09425e-20
-4.90233e-20
6.61512e-20
-5.26009e-20
9.9885e-20
4.44104e-20
-4.63642e-20
-1.58503e-19
5.14774e-21
-2.0736e-19
-2.75808e-19
1.19559e-18
9.90463e-20
-2.73276e-19
-4.98012e-21
6.29803e-20
-1.84936e-19
2.31171e-20
6.14229e-20
-9.21164e-20
-7.29843e-20
1.00761e-19
-1.46989e-19
-1.22913e-19
5.86463e-20
-1.7588e-20
3.33292e-19
1.86481e-19
2.57464e-19
2.22608e-21
9.93973e-21
2.09271e-19
-6.86863e-19
-2.02304e-18
2.97451e-19
-1.40337e-20
-3.2273e-19
-5.4409e-20
1.05123e-19
-3.36243e-20
-3.20488e-20
-9.54119e-20
-1.14676e-19
-7.90921e-20
1.45469e-19
-3.82567e-20
6.63107e-20
-1.24761e-19
-2.75071e-19
5.40191e-20
1.95742e-20
2.75076e-19
-1.45407e-19
5.13503e-20
-1.34388e-19
-3.15153e-20
4.45252e-20
-5.84724e-21
1.83408e-19
4.52789e-20
1.50733e-19
-1.84227e-20
-1.05012e-19
4.14485e-20
-1.84797e-19
-3.72774e-19
-2.09101e-19
1.21236e-19
-4.27446e-19
-9.30556e-20
3.76757e-20
-5.28815e-20
2.50379e-19
9.73765e-19
1.45205e-19
3.57584e-20
1.6733e-19
-3.29576e-19
-9.84674e-20
4.86242e-20
-9.26687e-20
-1.60344e-19
1.35177e-20
6.38086e-21
2.65705e-21
-6.7028e-20
-4.4255e-20
7.01074e-20
2.68033e-19
-1.1033e-19
-3.44727e-20
-1.53805e-19
3.38351e-20
6.38455e-20
-8.01618e-20
-3.32817e-20
9.85775e-20
4.71552e-20
2.76477e-20
2.30708e-20
1.72391e-19
-4.33614e-20
-9.62961e-20
-7.37926e-20
3.19902e-19
7.61586e-20
-7.55479e-19
-1.72812e-19
1.12023e-19
-1.19705e-19
-1.95434e-20
1.07598e-19
1.01348e-19
1.16428e-19
1.34332e-20
-6.39525e-20
-1.05998e-19
-2.61873e-20
-2.85863e-20
4.66577e-20
-7.32769e-20
-4.6267e-21
4.94037e-20
-2.82768e-20
4.55453e-20
9.25366e-20
1.32073e-19
-3.93567e-19
4.06137e-19
7.05156e-20
-1.91309e-19
2.69944e-19
3.86904e-21
-2.23416e-22
-3.23759e-22
1.20662e-19
-9.80026e-20
5.26461e-20
6.96047e-20
8.65011e-20
1.89008e-20
-1.14921e-19
-1.87694e-20
2.63495e-20
1.96788e-19
3.04779e-20
4.51715e-20
-3.63938e-22
-4.70077e-21
-2.3614e-20
-3.63653e-20
1.20573e-19
-1.59395e-20
6.43562e-21
-2.38379e-20
2.22884e-19
1.5014e-19
9.89444e-20
2.56349e-19
3.6047e-19
3.04026e-19
-2.40476e-21
-8.88852e-21
2.3402e-19
-2.05731e-19
2.54782e-19
-1.75269e-19
-3.0863e-19
-2.94049e-20
1.15525e-19
3.21948e-19
2.55722e-19
-7.62508e-20
6.62952e-21
1.24758e-19
9.62603e-20
1.24769e-19
6.01281e-20
-7.70084e-20
-7.68438e-20
2.58825e-19
-2.03597e-20
-1.02965e-19
5.53118e-20
2.25082e-20
-3.57091e-21
2.67911e-21
-3.51699e-20
-2.09104e-20
5.71903e-20
-1.12917e-19
-6.14517e-20
5.41318e-20
3.48477e-20
-9.0704e-20
4.53919e-19
2.32926e-19
-3.00482e-19
-1.444e-19
-0.00115186
-0.00045596
-0.000208026
-0.000907118
-0.00196517
-0.00265919
-0.00274614
-0.00244155
-0.00232216
-0.00293615
-0.00438287
-0.00639869
-0.00874293
-0.0110842
-0.0131101
-0.0147199
-0.0161383
-0.0173559
-0.0173561
-0.0133082
-0.00571674
-0.00272517
-0.00457794
-0.00471634
-0.00315848
-0.00206738
-0.00244562
-0.00477126
-0.00890504
-0.0139493
-0.0181507
-0.0186747
-0.0133636
-0.00407544
0.00411832
0.00646896
0.00306673
0.000296169
-0.000705873
-0.00122265
0.00188065
0.00110548
0.00136136
0.00314379
0.00535085
0.00688394
0.00742949
0.00725453
0.00708645
0.00756663
0.00911317
0.0117995
0.015388
0.0193
0.0229089
0.0256754
0.0280051
0.0308088
0.0331984
0.0301168
0.0182413
0.00611389
0.0032576
0.00603017
0.00832764
0.00916539
0.00972899
0.0117654
0.0165318
0.0235525
0.0304726
0.0332981
0.02847
0.0166644
0.00308434
-0.00652547
-0.00832848
-0.00481636
-0.000812797
0.00156691
-0.000280263
-0.000154311
-0.000239532
-0.000359614
-0.000414721
-0.000380259
-0.000301356
-0.000175938
-7.20346e-05
-0.000124581
-0.000332739
-0.000495084
-0.000472424
-0.000343738
-0.00031127
-0.000531521
-0.000936299
-0.00115947
-0.000873302
-0.00030316
-0.000320231
-0.00150879
-0.00260094
-0.00187717
-0.000427476
0.000470779
0.000530367
7.67346e-05
-0.000291176
-0.000303782
-6.73251e-05
0.000155542
3.2329e-05
-0.000520861
-0.00107753
-0.000939394
-0.000679782
-0.00106368
-0.00106399
-0.000620975
-0.000349203
-0.000275814
-0.000449278
-0.000865037
-0.00127808
-0.00154793
-0.0016949
-0.00179093
-0.00189934
-0.00200466
-0.00218747
-0.00257188
-0.00311326
-0.00370745
-0.00428663
-0.00470731
-0.00498437
-0.00535179
-0.00586704
-0.00599644
-0.00476451
-0.00178045
8.06587e-05
-0.000995135
-0.00218506
-0.00274377
-0.00303497
-0.00328759
-0.0038681
-0.00484596
-0.00588809
-0.00650807
-0.00631156
-0.00508647
-0.00303983
-0.000487888
0.00196263
0.00236302
0.000831105
-0.000231285
-2.17875e-05
-3.03776e-05
-5.03385e-05
-0.000143234
-0.000252451
-0.000324137
-0.000356769
-0.00037804
-0.00040097
-0.000408008
-0.000417937
-0.000504501
-0.000688945
-0.000879686
-0.000963483
-0.00087042
-0.000688874
-0.000621482
-0.000733141
-0.000800737
-0.000482305
0.000393529
0.00118341
0.000628268
-0.000272586
-0.000610201
-0.000579234
-0.00042511
-0.000410375
-0.000637107
-0.000952002
-0.00111865
-0.00099473
-0.000555809
0.000137548
0.000913985
0.00147352
0.00149703
0.000904811
0.000187603
5.76057e-06
4.51785e-06
-1.16311e-06
-1.38598e-05
-3.1177e-05
-4.26966e-05
-4.84881e-05
-5.34131e-05
-5.72681e-05
-5.50255e-05
-5.14734e-05
-6.02361e-05
-9.2518e-05
-0.000126979
-0.000126344
-8.159e-05
-3.1049e-05
-1.63912e-05
-4.38166e-05
-9.43352e-05
-4.96362e-05
8.1383e-05
0.000242645
0.000241738
2.64934e-05
-9.03052e-05
-8.04864e-05
-2.67606e-05
-5.19942e-07
-2.49364e-05
-7.22144e-05
-0.00010642
-9.5401e-05
-3.04446e-05
8.21692e-05
0.000225664
0.000340124
0.000353398
0.000277797
9.16914e-05
-5.88953e-06
3.93961e-06
6.86238e-07
-3.02319e-06
-4.32632e-06
-4.85555e-06
-5.41773e-06
-6.38838e-06
-7.37832e-06
-6.99991e-06
-5.86307e-06
-7.98648e-06
-1.2128e-05
-1.2024e-05
-3.57221e-06
2.86107e-06
2.11507e-06
-3.80212e-07
7.91747e-07
-1.49685e-05
-2.60134e-05
4.70711e-06
7.67957e-06
1.54924e-05
9.95117e-06
-9.30839e-06
-1.21455e-05
-5.28982e-06
-1.60393e-06
-1.7846e-06
-1.72824e-06
-4.95867e-06
-8.872e-06
-4.888e-06
4.2796e-06
1.1452e-05
1.31074e-05
2.40592e-05
5.25978e-05
4.89964e-05
2.18303e-06
-1.19234e-06
2.24862e-06
5.8487e-07
9.18527e-07
1.5459e-06
1.55013e-06
1.56004e-06
2.03349e-06
2.55602e-06
3.26609e-06
3.28829e-06
2.99304e-06
4.31372e-06
5.79849e-06
2.42021e-06
-8.04157e-07
-3.87887e-07
6.61443e-07
1.88234e-06
-6.8808e-06
3.86618e-06
-3.74337e-07
-1.56707e-05
-3.74239e-06
2.29782e-06
5.96828e-07
4.70604e-07
1.16989e-06
2.95134e-06
5.91252e-06
5.65593e-06
8.9517e-07
-1.54561e-06
-2.57129e-07
5.92083e-07
-6.10153e-06
-1.30878e-05
-5.09334e-06
1.69921e-05
5.84789e-06
-3.18027e-06
1.38669e-06
1.55588e-06
1.64607e-06
1.66655e-06
1.51965e-06
1.36941e-06
1.57106e-06
1.91982e-06
2.44134e-06
3.8173e-06
4.99567e-06
5.03841e-06
2.58119e-06
-5.72944e-07
-1.20928e-06
-7.1409e-08
-3.0986e-10
1.20127e-06
5.4146e-07
4.08985e-06
5.08381e-06
-5.99046e-06
-2.96693e-06
1.21025e-06
1.00588e-06
6.68341e-07
9.63515e-07
1.56172e-06
1.99879e-06
1.74915e-06
2.81105e-07
-8.63311e-07
-8.63674e-07
1.53599e-07
-3.83194e-07
-3.78489e-06
-5.30928e-06
1.59071e-06
3.39912e-06
-1.79144e-06
-5.83465e-07
1.02462e-06
1.32358e-06
1.31529e-06
1.18479e-06
1.00899e-06
7.30559e-07
5.7067e-07
6.57018e-07
1.30185e-06
2.86909e-06
3.17322e-06
1.12997e-06
-3.49441e-07