/*--------------------------------*- C++ -*----------------------------------*\
| =========                 |                                                 |
| \\      /  F ield         | OpenFOAM: The Open Source CFD Toolbox           |
|  \\    /   O peration     | Version:  5.0                                   |
|   \\  /    A nd           | Web:      www.OpenFOAM.org                      |
|    \\/     M anipulation  |                                                 |
\*---------------------------------------------------------------------------*/
FoamFile
{
    version     2.0;
    format      ascii;
    class       volScalarField;
    location    "50.4676134421789371";
    object      MDv;
}
// * * * * * * * * * * * * * * * * * * * * * * * * * * * * * * * * * * * * * //

dimensions      [0 -1 -1 1 0 0 0];

internalField   nonuniform List<scalar> 
60000
(
-6.46637
-6.60256
-3.1675
0.882543
2.80337
1.61767
0.141531
-0.505575
0.380585
-0.987303
-3.46547
-5.02546
-3.00849
0.0272504
1.20577
2.33219
5.02577
6.93979
3.72699
-3.32257
-7.16937
-6.26641
-1.73221
6.84237
16.1516
19.9885
14.7806
4.52811
-3.74038
-5.17176
-2.086
-0.607831
-2.41078
-4.69522
-5.62001
-2.18699
1.22442
1.75796
-0.459045
-3.77668
5.87846
5.45539
2.73986
-0.57598
-2.20434
-1.02648
0.172927
0.323588
-0.3555
1.27698
3.3653
3.97634
1.68418
-0.311837
-0.160853
-0.311253
-2.65452
-4.65561
-3.56735
-1.00998
-0.1028
0.885491
0.960572
-3.02754
-10.2754
-14.3469
-11.061
-3.61547
1.73156
2.16308
0.65534
1.42096
4.06979
5.68477
5.12638
0.528238
-1.33382
-0.0798033
2.56031
4.80795
3.65842
3.9436
1.47138
-1.09948
-2.23065
-1.37653
-0.187249
0.573871
-0.274424
0.434025
2.09754
3.58442
2.59031
-0.18304
-2.20752
-3.91605
-5.33625
-5.59403
-1.1477
6.05845
10.3865
8.50818
1.69812
-7.87844
-15.0652
-16.9092
-12.3499
-4.35192
2.38412
3.94969
1.30428
-1.31866
-1.03953
0.982149
3.11243
2.7032
-0.911852
-2.83385
-1.87343
1.01066
-1.66067
-1.15693
-0.341061
0.403796
0.846965
0.320964
-0.200407
-0.211794
0.168416
-0.611698
-1.10307
-1.03946
-0.162198
0.514604
0.43695
0.67714
1.28131
1.55583
0.594614
-0.305036
-0.656396
-0.139932
-0.0786079
0.484923
2.80181
4.96693
4.59807
2.7417
1.46757
0.984445
0.909399
0.442853
-0.708272
-1.43233
-1.29203
0.00480595
0.904432
0.325123
-0.854161
-1.69345
-1.12393
-1.24462
-0.503457
0.294345
0.637115
0.457974
0.132341
-0.147008
0.0341322
-0.0627616
-0.54437
-0.979929
-0.819521
-0.0311751
0.64499
1.09036
1.43261
1.35415
0.339312
-1.04969
-2.43772
-2.34633
-0.354176
2.38813
4.55071
4.81098
3.06655
0.499811
-0.954296
-0.900916
-0.428269
0.129844
0.196502
-0.359943
-0.978251
-0.707833
0.141752
0.741412
0.556017
-0.299267
-0.203653
-0.350286
-0.233081
0.011921
0.111529
0.0905896
0.050231
-0.00633505
-0.000745981
0.0193489
-0.0841832
-0.214505
-0.320188
-0.245288
0.10231
0.384462
0.451148
0.27903
-0.00649652
-0.0612936
-0.148222
-0.895724
-0.351775
1.19083
1.75403
1.16731
0.599844
0.0334305
-0.59345
-0.447904
-0.131077
-0.0686526
-0.011165
-0.0154255
-0.197718
-0.267441
-0.0538292
0.14672
0.244665
0.0766242
0.00752963
-0.0182825
-0.0293643
-0.0229656
-0.0140377
-0.00971
-0.0023027
0.0064155
0.00335434
0.00491344
-0.00831414
-0.0211908
-0.00987776
-0.0900216
-0.0834036
0.042286
0.146293
0.132679
-0.00423172
0.0242908
0.363603
-0.100628
-0.290419
0.372479
0.32586
-0.00810657
-0.0775579
0.0147286
-0.154848
-0.290723
-0.0607282
0.031296
-0.0293036
-0.048701
-0.0284697
-0.0478836
-0.0220326
-0.0039383
0.0279049
0.0579706
0.0110506
0.0174423
0.0238354
0.00309249
-0.0140215
-0.0166854
-0.0108432
-0.00228136
0.000797837
-0.000963677
-0.000860504
-0.00293085
0.0257835
0.0272647
-0.0307324
-0.061616
-0.0223564
0.0851642
0.0111268
0.00819644
0.206218
0.0365512
-0.165378
-0.00376336
-0.121506
-0.0970794
-0.0341303
-0.0156262
0.0048094
-0.104095
-0.11081
0.000435246
0.0309206
-0.000122362
-0.0113921
-0.00739103
-0.00353434
-0.00672509
-0.0264101
-0.00633587
-0.00120094
0.00584159
0.0113805
0.00464016
-0.00354007
-0.00525519
-0.00256386
-0.00159954
-0.000899099
-0.00096797
0.000384997
0.000131678
0.00545119
0.0143645
0.00102058
-0.0386044
-0.0649063
0.0189438
0.0148083
-0.0446366
0.0393581
-0.00719459
-0.0438632
-0.0718517
-0.102385
-0.0506306
0.000704624
-0.000139945
0.00857817
0.00161482
-0.0281926
-0.0257541
0.00383027
0.0225633
0.0135981
0.00103991
-0.0015578
-0.0014784
-0.00989723
-0.0117623
-0.00220088
0.000422623
0.00241166
0.00089836
-0.000865057
-0.00132963
-0.000364659
0.000257422
-1.36792e-05
-9.81094e-05
0.000737789
0.000188621
-0.000455834
0.00504502
0.00340827
-0.0100177
-0.0329446
-0.026858
0.00735625
-0.071556
-0.0621663
-0.00938684
0.0142895
-0.0433453
-0.0503403
-0.021947
-0.00679895
6.55377e-05
-0.000723935
0.00235866
0.000469326
-0.00326592
-0.00534681
0.00048216
0.007754
0.0048215
0.000236126
-0.000485929
-0.00162171
-0.00328521
-0.000607147
-0.00026077
0.000191781
-0.000124929
-0.000275199
-0.000169738
-0.000105697
6.53791e-05
9.20954e-05
2.1763e-05
-1.32263e-05
-0.000726914
-0.00142239
0.00325754
0.00155334
-0.00116293
-0.00279461
-0.0203603
-0.00242026
-0.0404108
-0.0897698
-0.0036943
0.0167238
-0.0296265
-0.0298345
-0.00881947
-0.00101391
-0.00017985
-0.000237543
-0.00013584
0.000193627
6.22593e-05
-0.000256181
-0.00117602
-0.000148231
0.00140796
0.000878927
0.000102567
-0.000151981
-0.000443407
-6.58792e-05
-8.90415e-05
-8.78507e-05
-0.000136846
-0.000228288
-3.35157e-05
-3.606e-05
2.85053e-07
5.45141e-06
1.89635e-05
-0.000224589
-0.000576973
-0.000745546
0.000792365
-7.71773e-05
-0.000774537
0.0028017
-0.00318829
-0.00284142
-0.00848348
-0.0531719
-0.00476925
0.010292
-0.0182599
-0.0123044
-0.00254459
-0.000519569
-1.91279e-05
8.71186e-05
-8.35638e-06
-3.52784e-06
-2.47943e-06
1.14681e-05
-3.52324e-05
-0.000229461
-2.15175e-05
0.000205936
0.000124191
5.51325e-05
1.48106e-06
-1.84121e-06
-2.99396e-06
-2.63383e-05
-2.54552e-05
-7.53827e-06
-2.37103e-06
8.06446e-07
-6.88496e-07
2.81502e-07
4.37829e-06
-3.68869e-05
-0.000275344
-0.000219835
0.000215194
-0.000308597
-0.000766459
0.000539458
0.00053551
-0.000934407
-0.000201429
-0.015399
-0.00399966
0.0052487
-0.0063502
-0.00333531
-0.000706123
-0.000187194
4.76931e-07
7.20151e-08
2.87897e-07
2.49051e-07
3.46199e-07
-1.62633e-08
8.01765e-07
-8.97057e-07
1.0647e-07
2.61664e-07
5.10395e-06
3.01652e-06
-3.08111e-06
1.68349e-06
1.94521e-06
-2.44563e-06
-1.22764e-06
-1.34938e-07
-1.04397e-08
-6.42908e-09
-3.97634e-10
-5.58435e-08
1.28982e-06
2.73481e-07
-0.000203014
-2.94872e-05
0.000135985
-6.75216e-05
-0.000240186
-2.97219e-05
0.000114493
-0.000198958
0.000198495
-0.00239168
-0.00189932
0.0017145
-0.00119143
-0.00107562
-0.000295206
-2.55187e-06
2.86595e-09
-4.43415e-11
2.34438e-10
-3.07854e-09
-3.23521e-09
5.33629e-10
-2.7272e-09
2.18959e-09
4.64972e-09
-1.46438e-08
1.36427e-07
2.22856e-08
4.56674e-08
9.03556e-09
2.92405e-08
-2.09879e-08
-1.56098e-08
-1.56793e-09
-7.42875e-11
-5.36651e-12
1.33553e-10
-2.06682e-09
-2.89703e-08
4.42648e-06
-1.36122e-05
-1.81714e-05
1.538e-05
-2.44782e-06
-1.98769e-06
8.99093e-06
1.14942e-05
-8.68872e-06
-4.52091e-05
-0.000201704
-0.000366538
0.000272102
-7.897e-05
-0.000200633
-6.43169e-06
-8.97147e-08
4.60284e-10
3.99657e-11
-1.06621e-11
1.26837e-11
1.55431e-11
-2.67698e-12
7.30334e-12
-3.57343e-12
-9.95094e-12
-3.8641e-11
1.32399e-10
4.59127e-11
-1.30222e-09
7.23015e-12
1.88556e-10
-8.21225e-11
-1.02e-10
-1.08899e-11
-5.55726e-13
1.16211e-13
-1.56751e-12
2.23721e-11
-1.13228e-10
2.64321e-09
-3.90437e-07
2.46441e-06
1.79522e-06
2.80313e-08
-1.59914e-08
1.8258e-09
3.76365e-07
1.07782e-06
-7.1151e-08
1.33227e-06
-1.0966e-06
6.30019e-06
-1.24512e-07
-4.35846e-07
-1.5279e-08
-8.15342e-11
2.99664e-12
1.37939e-13
5.61419e-14
-1.49972e-14
-4.22585e-14
5.82401e-15
-1.4936e-14
6.55031e-15
3.9009e-14
-3.57552e-14
-2.97626e-14
-9.4345e-13
-5.5595e-12
-1.15014e-13
7.66213e-13
2.85906e-13
-4.5188e-13
-7.11978e-14
-1.14343e-14
-7.72534e-15
5.96491e-15
-2.86657e-14
4.20818e-13
1.13674e-12
-6.73411e-10
1.23826e-08
2.02885e-08
8.66693e-10
-2.27535e-10
-4.45061e-11
3.50523e-10
-3.9786e-09
-1.10209e-09
-7.68083e-09
-3.71214e-10
1.70407e-08
2.05461e-09
-1.42003e-09
-9.85857e-11
-3.53027e-12
-9.02018e-14
2.55144e-15
-6.29591e-16
4.51788e-15
-2.38984e-15
-2.20952e-15
-5.71388e-15
-5.12457e-15
1.34457e-14
1.51107e-14
-4.78484e-15
-1.24102e-14
-8.29474e-15
4.6447e-16
2.39905e-15
-7.44062e-16
-3.73004e-15
-2.56712e-15
-7.47087e-15
1.05444e-15
1.60131e-15
1.8872e-15
6.49469e-15
-7.00691e-16
-9.44362e-13
3.43507e-11
1.49408e-10
7.1045e-12
-3.50579e-12
-3.75307e-13
-6.88079e-13
7.98946e-12
1.00399e-11
2.55311e-11
-3.03374e-12
4.4813e-11
-3.99148e-13
-1.043e-11
-1.01878e-12
-4.00383e-14
1.51134e-16
-8.14367e-16
-9.71008e-15
6.84929e-15
6.42248e-16
-4.08961e-15
-6.02556e-15
-9.7145e-16
2.33102e-16
1.04024e-14
-6.1381e-15
7.17313e-16
1.05741e-15
1.13031e-16
2.04572e-15
-3.57891e-15
-8.06763e-15
-3.29356e-15
2.95935e-15
4.91455e-15
-5.55922e-15
-2.27702e-15
-4.02995e-15
8.02338e-15
4.70046e-15
4.46671e-14
6.21046e-13
-3.33513e-14
-2.64356e-14
5.9807e-15
2.82387e-15
-8.65199e-15
-4.04732e-14
-4.11935e-14
-3.58059e-15
9.97521e-14
-1.22511e-13
-7.94379e-14
-2.80469e-15
-7.23576e-15
2.88711e-15
-6.06982e-15
-1.06621e-14
-2.39727e-15
-2.4347e-15
-4.10781e-15
1.02264e-14
1.46384e-14
-7.1649e-15
7.92336e-15
4.45669e-15
-2.10393e-15
2.18186e-15
3.18758e-15
1.30886e-15
6.25499e-16
1.07946e-15
-1.3225e-15
-1.10895e-14
-1.07724e-14
7.79376e-15
-1.01423e-14
-3.53051e-15
2.36956e-14
-1.30089e-14
6.55572e-15
-3.80642e-16
-1.03582e-14
6.6455e-15
-1.72366e-15
4.72356e-16
1.01381e-15
-5.26079e-16
-1.64956e-15
6.4493e-16
1.51412e-15
9.7814e-17
-2.56245e-15
4.19305e-16
4.94121e-15
-1.61319e-15
8.28556e-15
9.01742e-15
-3.44188e-15
-2.86631e-15
4.58691e-15
-5.8958e-15
-1.28563e-14
4.89444e-15
-5.14591e-15
1.98202e-15
2.77714e-15
-2.61243e-15
2.89742e-15
-4.71481e-15
-1.33323e-15
4.39897e-15
-3.48315e-15
-1.68123e-14
1.35481e-15
-1.50175e-15
1.29616e-14
1.21758e-14
-1.88328e-14
-6.49456e-15
-3.61489e-15
-2.49762e-15
4.15348e-15
-3.16726e-16
-7.24831e-17
-7.07842e-16
-1.81538e-15
2.49275e-15
1.03665e-15
-4.13047e-15
6.17533e-15
2.09518e-15
4.99325e-15
3.75813e-15
2.87786e-15
2.89945e-15
7.4404e-15
1.66897e-14
-6.62497e-16
-1.90244e-15
2.88546e-15
-3.54889e-15
-1.46052e-14
4.47129e-16
-7.36421e-16
8.69217e-16
6.68727e-16
7.43483e-16
1.2614e-15
-2.33063e-15
-1.79959e-15
2.3386e-15
3.05153e-16
6.13349e-15
6.97733e-15
-2.13869e-16
3.22667e-15
-8.29299e-15
-1.71536e-14
1.38853e-15
4.35466e-17
2.31589e-15
-3.58939e-15
3.1687e-16
2.70711e-17
1.25536e-15
1.00825e-15
7.68019e-17
4.61923e-16
1.75002e-15
1.39631e-15
1.51569e-16
-1.46124e-16
-6.52865e-15
-2.57612e-15
6.25259e-15
-1.81359e-15
-4.09463e-15
3.08242e-15
7.17298e-15
2.5657e-15
-2.3352e-15
-1.06487e-14
-1.67174e-15
6.28831e-16
2.71714e-15
-6.66393e-15
-2.07824e-15
-1.99067e-15
2.61288e-15
1.89818e-15
7.42291e-16
-3.53075e-15
6.83821e-15
2.81338e-15
3.44879e-15
-5.74787e-15
-7.25775e-15
1.2963e-14
1.24956e-15
-5.26391e-15
-1.84212e-16
1.79327e-16
3.68699e-15
1.9653e-15
1.47739e-15
3.31974e-15
1.87048e-15
-6.28469e-16
4.68224e-16
-4.68022e-15
-6.70356e-16
2.04329e-15
-5.55922e-15
-6.57415e-15
-1.7978e-15
3.15943e-16
1.69863e-16
2.11051e-15
-1.71324e-15
9.35942e-15
3.81279e-15
2.70856e-15
-5.59807e-17
9.98028e-16
-3.88226e-15
2.42264e-15
3.48724e-15
9.08255e-16
-4.13823e-15
-1.27017e-15
-1.70143e-15
-5.99688e-15
-3.78478e-15
9.72988e-15
-9.72279e-17
-2.53891e-15
5.85751e-15
1.38283e-16
-1.71744e-15
-1.38398e-15
2.07762e-15
2.77773e-15
1.3848e-15
5.11119e-16
6.14593e-16
-6.09516e-16
5.62245e-16
1.56018e-15
-3.18253e-15
3.98243e-16
-2.17466e-15
3.1812e-16
-4.0637e-15
-9.15734e-15
7.76676e-16
1.46836e-15
1.09977e-15
-1.46138e-15
-1.27565e-15
3.46401e-15
9.03223e-15
2.95328e-15
7.64322e-16
1.09705e-15
-1.94853e-15
-1.84673e-15
1.83795e-15
2.45659e-15
1.2613e-15
-4.92093e-16
-6.70797e-16
5.06367e-15
-5.51253e-15
-5.01136e-15
8.53353e-16
1.09576e-15
-8.86268e-15
-2.45344e-15
5.55507e-16
-3.3379e-15
-1.27224e-15
-1.62717e-15
4.1682e-16
-1.44201e-15
-1.09104e-15
-1.04502e-15
-9.19852e-16
2.20784e-15
7.53553e-15
4.67397e-15
4.79988e-17
1.2126e-15
3.23836e-15
-1.22611e-15
3.10073e-15
3.68167e-15
8.60266e-16
-1.99759e-15
3.57828e-15
3.94485e-15
8.02744e-15
-7.73147e-15
3.41632e-15
-1.19805e-15
-2.21982e-15
-1.73328e-15
1.40802e-16
-2.84876
-3.57762
-2.42253
0.470024
3.01403
4.07055
3.68108
2.66082
0.828776
0.00950326
-0.123308
1.7095
4.37443
6.28056
8.09742
10.5024
12.3063
11.9554
8.39393
1.70337
-3.78683
-4.13506
-1.97816
-1.35821
1.01535
1.8606
-0.700527
-3.62579
-2.13612
3.1321
7.67856
8.14168
5.29779
0.392605
-2.96681
-1.01928
2.32181
1.32905
-1.07587
-1.96703
1.66645
2.61312
2.33496
0.274744
-1.69799
-2.32118
-2.5401
-2.95322
-2.6006
-2.16426
-1.64718
-2.64805
-4.16308
-4.82839
-5.48336
-6.94562
-8.17482
-7.68834
-5.13238
-1.94545
-1.47818
-2.31091
-1.1609
2.0028
2.42124
2.48165
3.6051
4.46346
2.25827
-2.01621
-5.16622
-5.12149
-3.06791
0.302896
1.37134
-2.55931
-4.66331
-1.42147
1.24267
1.40829
2.68679
2.50989
0.881913
-1.49102
-3.55414
-4.56672
-3.21213
-0.810569
1.76731
2.48425
2.14622
0.106791
-2.72171
-5.30031
-7.76442
-10.2679
-11.9866
-12.0142
-8.75112
-1.3299
5.79901
6.99428
3.57232
-0.340458
-4.48185
-5.84287
-3.08313
0.168953
0.0698267
-3.33306
-6.93703
-7.77709
-5.71028
-1.75673
2.47194
3.80361
0.881915
-0.451591
0.828017
1.90983
-0.786143
-0.683947
-0.366263
0.239924
0.992075
1.25647
0.886715
0.737585
0.429448
0.442669
0.369041
0.879392
1.4894
1.94505
2.58205
3.56951
4.37899
4.28171
2.99043
1.66958
1.35825
1.34675
1.0293
-0.0855706
-0.572638
-0.41941
-0.353201
-0.210915
0.344693
1.31309
2.20989
2.24738
1.75841
0.852573
0.432765
1.14208
1.74212
0.421759
-0.82772
-0.900121
-0.825437
-0.885692
-0.367535
0.402935
1.00107
1.26638
0.872678
0.213153
-0.359475
-0.623598
-0.540898
0.00610625
0.792512
1.48626
2.05477
2.53855
2.84966
2.83389
1.79845
-0.0662223
-1.16874
-1.75036
-1.18008
0.0125383
1.17788
1.3574
0.464828
-0.307063
-0.165051
0.650161
1.60907
1.89493
1.27052
0.139335
-0.889593
-0.922527
-0.22803
0.203854
-0.0909172
-0.492025
-0.160541
-0.277116
-0.188808
0.108885
0.266516
0.289755
0.218167
0.0300756
-0.0737328
-0.149846
-0.238687
-0.133699
0.0894698
0.33149
0.489647
0.510606
0.445124
0.484641
0.430537
-0.185366
-0.25893
-0.265712
-0.639685
-0.145962
0.643975
0.706684
0.238923
-0.152354
-0.148605
0.0666548
0.267311
0.356539
0.222633
-0.0580786
-0.361634
-0.373786
-0.176789
-0.021873
0.0932568
-0.0189264
0.00699971
-0.0224447
-0.0720775
-0.0167256
0.0229109
0.0128104
0.02718
0.0138212
-0.022329
0.0215934
-0.0359547
-0.0956383
-0.0524227
0.0117571
0.063863
0.0550149
-0.0168493
-0.0476367
0.0965775
-0.0420165
-0.13909
0.275535
-0.064824
-0.148851
0.167481
0.176803
0.0706565
-0.0269127
-0.0612455
-0.00472634
0.00229336
-0.00978335
-0.0050476
-0.0233117
-0.0821997
-0.0892066
0.00709917
-0.025759
0.0205664
0.0485144
0.0226315
0.0286216
0.00657932
-0.0212414
-0.0239767
-0.0277344
-0.0118294
0.0055042
-0.0133664
0.0019355
0.0454959
-0.0109068
-0.0403317
-0.0279745
-0.0193364
-0.0184386
-0.0254991
-0.0630917
-0.0224487
-0.00563013
-0.150676
0.119852
0.0757698
-0.0689985
-0.0235639
-0.0336734
-0.0098362
-0.00256048
-0.0196485
-0.00936139
0.000557167
-0.0081876
-4.17984e-05
0.01736
-0.00384668
-0.0374254
0.00927006
0.0124656
-0.02309
0.0155804
0.00808726
0.0186062
0.020522
-0.00434216
-0.0169161
-0.0139035
-0.0067439
-0.000793674
-0.00558547
-0.0122859
0.0198216
0.0256033
-0.00874512
-0.0197484
-0.0240653
-0.019569
-0.0029626
-0.0123866
-0.0261493
-0.00893801
-0.0717333
-0.0379874
0.00448603
-0.0210122
-0.0385179
-0.0350649
-0.00659837
-7.44751e-05
-0.00238086
-0.00121377
0.0019362
0.000756612
-0.00085292
0.00663014
0.0163672
-0.0128046
-0.0168166
0.0116797
-0.00995819
-0.0106781
-0.00136863
0.00641057
0.0110749
0.00177558
-0.00674128
-0.00506959
-0.00267178
-0.000812593
-0.00388199
-0.0069321
-0.00102574
0.0136311
0.00591989
-0.00947342
-0.0180149
-0.0145714
-0.00035772
0.00392409
-0.00905149
-0.00703697
-0.0225016
-0.065815
-0.0280321
-0.00280912
-0.0208906
-0.0153738
-0.00247006
0.000254238
-0.000457218
-0.000273635
8.64753e-05
8.42379e-05
-9.86858e-05
-0.00277167
0.00565739
0.00241536
-0.0112876
-0.0012606
0.00104708
-0.00736711
-0.00148134
0.00133194
0.00383984
0.000856476
-0.00268898
-0.00213224
-0.00105552
0.000116145
-0.00136489
-0.00353868
-0.00267008
0.00302377
0.0037984
-0.00412103
-0.00913062
-0.0077467
-0.00171347
0.00613737
-0.000632928
-0.00236446
-0.00823198
-0.0491946
-0.0189691
0.00178277
-0.012036
-0.00661214
-0.00104626
-0.000430971
-0.000134587
-3.82477e-05
-1.02839e-05
-8.29999e-05
8.89e-06
-0.000600098
-7.17765e-05
0.00233863
-0.00260615
-0.00260619
0.000747757
-0.00111384
-0.000158478
-2.04204e-05
0.000659729
-0.000311685
-0.00120874
-0.000579052
-5.90254e-05
5.74224e-05
0.000204435
-0.001633
-0.00146388
0.000701932
0.00117175
-0.00148402
-0.00235348
-0.00236094
-0.00149477
0.00246483
0.000770558
8.72924e-05
-0.00131307
-0.0248532
-0.00772235
0.00186012
-0.00563883
-0.0026602
-0.000952004
-0.00026053
-1.40962e-05
-2.1448e-07
4.5845e-06
9.9215e-06
1.47081e-07
8.86504e-06
-0.000218454
0.000382306
8.42646e-06
-0.000747373
-0.00011848
0.000168437
0.000106745
-4.14244e-05
2.17718e-05
-0.000323415
-0.000317878
-7.11838e-05
-4.78257e-06
1.66898e-06
0.000149762
-0.000380909
-0.000625561
7.42365e-05
0.000450388
-0.000362945
-0.000553164
-0.000446687
-0.00054821
2.81881e-05
0.000409371
0.000195729
0.000475603
-0.00795735
-0.00254766
0.00104377
-0.00165058
-0.00114791
-0.000398854
-1.37188e-05
-5.26071e-07
-5.83534e-08
-8.82823e-08
7.724e-07
1.9811e-07
3.88763e-06
-2.48936e-05
5.38703e-06
0.000172891
-3.35836e-05
-8.03827e-05
8.3612e-06
3.98218e-06
0.000114033
-8.78565e-05
-7.18368e-05
-2.98684e-05
-5.15633e-06
-2.98121e-07
-1.17676e-06
3.39392e-06
-4.67504e-06
-0.000204889
-2.37265e-05
6.00681e-05
-5.0445e-05
-0.000201412
-1.32735e-05
-3.87504e-05
-1.98517e-05
0.000206288
3.339e-05
0.000107017
-0.00201682
-0.000549586
0.000285337
-0.000624328
-0.00038955
-1.88248e-05
-3.46243e-07
-6.05652e-09
-1.44776e-10
9.56142e-10
-6.58145e-09
-6.1081e-09
-3.04331e-08
2.1421e-07
-1.1855e-06
-1.22357e-07
-3.88854e-07
-1.7487e-06
-1.07956e-05
4.30945e-06
5.1105e-06
-4.3933e-06
-3.89878e-06
-3.70227e-07
-2.66265e-08
-4.11857e-09
1.43126e-08
-7.68057e-08
1.95259e-07
-1.32518e-07
6.62907e-06
1.45376e-05
1.14313e-07
-1.55721e-06
-6.90519e-07
1.3365e-07
-1.40508e-06
2.16202e-07
3.93076e-07
-4.74537e-06
-0.000415059
-2.283e-05
1.67198e-05
-0.000182004
-1.93197e-05
-5.38362e-07
-1.14337e-08
-3.12179e-10
-1.67592e-11
-7.33658e-12
3.66168e-11
8.23612e-11
1.43684e-10
-1.06354e-09
3.09186e-09
-1.52199e-10
1.46304e-09
-1.32137e-08
5.08309e-07
1.79145e-08
2.5232e-08
-7.21812e-08
-4.13671e-08
-3.14607e-09
-8.8911e-11
7.49245e-12
1.39841e-11
5.02448e-10
-1.75051e-10
-4.21417e-10
1.48252e-08
1.30676e-07
2.04622e-08
-1.12238e-08
-2.0746e-09
-1.12531e-09
1.00079e-08
-9.79721e-09
-1.10455e-08
1.48606e-06
-1.04023e-06
4.82254e-06
2.74576e-06
-1.61248e-06
-1.62562e-07
-6.70945e-09
-1.99964e-10
-5.1446e-12
-1.15736e-13
1.22659e-14
-8.23145e-14
-4.75868e-13
-4.4607e-13
3.85909e-12
-6.34169e-12
-2.92692e-12
2.12228e-11
-1.31583e-10
1.61745e-09
5.35043e-11
4.32143e-11
-6.70765e-10
-2.68474e-10
-1.707e-11
-3.27715e-13
-1.96912e-14
-6.59919e-13
1.34144e-12
1.61373e-12
1.66925e-12
-1.20498e-11
8.19382e-10
3.10706e-10
-6.99068e-11
-1.04924e-11
3.49586e-12
-5.43217e-11
1.24108e-10
-3.35862e-12
-7.24863e-09
-5.52411e-10
1.51e-08
2.00491e-08
-9.7514e-09
-1.49085e-09
-8.55622e-11
-3.17375e-12
-9.86645e-14
3.65941e-15
-6.90821e-15
3.14032e-15
-1.09767e-14
5.35965e-15
-2.21001e-14
2.64984e-14
3.99163e-15
1.21794e-13
-7.74916e-13
5.52276e-12
1.29733e-13
1.14532e-13
-2.86171e-12
-9.918e-13
-5.14535e-14
5.41661e-15
2.92082e-15
2.99619e-17
-6.55119e-15
-2.38921e-14
-9.1281e-16
-2.34597e-13
4.09749e-12
3.19052e-12
-4.15748e-13
-8.73341e-14
-1.61421e-14
1.13423e-13
-6.11575e-13
4.19566e-13
1.8708e-11
-1.53721e-12
3.79329e-11
3.81477e-11
-1.06518e-10
-1.67872e-11
-9.95836e-13
-3.18374e-14
-1.60935e-15
1.07629e-14
-2.65125e-15
3.33418e-16
1.07791e-14
1.8361e-14
-6.93791e-15
-2.40635e-14
2.18718e-15
2.88405e-15
-8.33373e-15
2.51351e-14
2.24256e-15
-4.32544e-15
-1.22091e-14
-7.51249e-15
5.91495e-15
1.01066e-14
-6.88311e-16
1.04034e-16
2.33054e-16
-6.61034e-15
5.38462e-15
2.57252e-15
2.12038e-14
1.49089e-14
-7.48304e-15
3.16442e-15
9.59334e-16
4.30034e-15
1.65209e-15
-1.12403e-15
-1.19445e-14
-7.87457e-15
3.94356e-14
-6.38842e-13
-9.05764e-13
-1.12057e-13
-7.7383e-16
-4.48537e-16
-3.06291e-16
3.13678e-15
7.46078e-15
-2.68781e-16
5.47945e-15
6.5504e-15
-5.60046e-15
-1.1628e-14
-4.86106e-15
4.97074e-15
-2.49862e-15
-2.89437e-15
1.03016e-15
5.27999e-15
3.9768e-15
-1.21814e-15
-8.55064e-15
-5.83118e-15
4.87529e-16
-2.12365e-15
4.67973e-17
-4.72097e-15
1.37605e-14
-4.20797e-16
-4.99792e-15
2.57509e-16
-3.47845e-15
-2.68764e-15
-1.22852e-15
2.39577e-16
1.91249e-16
-7.48896e-16
-2.52945e-15
3.96545e-15
2.47166e-16
-6.71401e-15
-1.12806e-14
2.99983e-15
1.17504e-15
-9.5261e-15
-4.08964e-15
-1.27275e-14
4.75831e-15
3.59789e-15
-1.19675e-14
-1.87743e-14
2.02131e-14
6.45342e-15
-1.47358e-15
-4.41336e-15
-2.15349e-15
-2.08903e-15
1.94662e-15
-7.46321e-17
-3.07892e-15
-9.47871e-16
9.75578e-15
-3.07719e-14
-1.43794e-14
3.92443e-15
1.39767e-14
1.09428e-15
1.19777e-14
4.01148e-15
-8.50028e-15
7.70403e-15
-8.04721e-15
-9.06289e-15
-3.06361e-15
5.66405e-15
-7.96036e-16
-2.69945e-15
-2.17503e-15
2.58593e-15
-4.2114e-15
-1.83312e-15
-5.24361e-15
1.03509e-14
1.85671e-15
-1.0091e-14
-4.76989e-15
-2.90097e-15
-2.99051e-16
7.76637e-16
-8.05927e-16
1.26036e-14
2.12197e-14
1.18651e-15
-1.87832e-17
4.16993e-15
-1.9877e-15
1.0792e-15
-2.27375e-15
-4.12886e-15
1.91795e-15
-1.53251e-15
1.37039e-15
-2.53788e-15
5.81454e-15
-5.61945e-15
5.45808e-15
9.65457e-15
-2.09327e-15
-5.00016e-15
-6.3557e-15
-2.52248e-15
-3.13143e-15
-1.70426e-15
3.95334e-16
2.10457e-15
4.86652e-16
-1.57246e-15
-4.98976e-16
-7.09936e-15
-6.56065e-16
1.31513e-15
-6.16261e-15
3.75125e-15
1.47068e-14
6.9363e-15
-1.58439e-15
7.62813e-15
2.46797e-15
-8.31865e-15
-2.29141e-15
-1.0502e-14
-1.57765e-14
6.29695e-16
4.53868e-15
-4.13653e-15
1.20694e-14
4.0121e-15
-2.0099e-15
-9.18324e-16
-1.22923e-15
4.65034e-16
-6.9453e-15
2.74165e-15
-3.04155e-15
-1.09787e-15
-7.27021e-17
-2.13034e-15
-1.31623e-15
-6.75881e-16
4.69048e-15
-3.42213e-16
1.76146e-15
-1.99598e-15
-3.50278e-16
-1.37427e-15
-1.07958e-15
-2.0428e-15
-1.00864e-15
-7.38899e-17
1.00268e-16
6.00397e-15
4.00412e-15
-7.87378e-15
-1.24335e-15
1.57697e-14
3.21047e-15
-3.17032e-15
1.45879e-15
1.32811e-15
-8.2367e-15
-8.22699e-15
-4.06183e-15
6.97729e-16
8.59054e-16
1.20303e-15
4.27975e-15
2.074e-15
-2.48035e-17
6.14676e-16
1.41519e-15
3.26901e-15
9.20988e-16
2.52051e-15
-1.36125e-15
-1.70072e-15
5.31393e-15
-5.78282e-15
-1.17783e-15
1.54251e-15
-6.2659e-15
1.19618e-15
-4.99579e-17
2.61154e-15
-1.56603e-15
2.67066e-16
-1.84896e-15
-1.46913e-15
-1.62705e-15
1.48707e-15
2.80125e-15
3.07843e-15
3.20574e-16
-1.53754e-15
-1.12197e-15
-3.51786e-15
6.35711e-16
1.29495e-15
2.48638e-16
2.334e-15
-7.17561e-15
4.95606e-15
8.80252e-15
7.48093e-17
-2.52969e-15
-2.89971e-15
-4.52348e-15
-5.54555e-15
-2.26052e-15
-1.92541e-15
8.7811e-16
-1.2966e-15
4.37279e-15
2.05681e-15
6.56796e-16
1.40599e-15
4.1411e-15
3.31411e-16
-1.25773e-15
-7.39719e-15
-3.21804e-16
1.73141e-15
4.74339e-17
-8.8975e-16
-2.72708e-15
1.5241e-15
2.28777e-16
3.21758e-15
3.2079e-15
-5.22673e-15
-6.01647e-17
2.52212e-15
-3.88782e-15
8.62267e-16
4.95411e-16
-2.28441e-15
-7.29138e-15
7.78015e-16
-6.24198e-16
4.25008e-15
3.91402e-15
-2.7629e-15
-5.5911e-16
1.38577e-15
-3.87323e-15
-3.7123e-15
3.9012e-15
2.54418e-15
-5.88663
-7.01088
-2.41612
1.56844
2.44773
1.59077
0.550082
-0.964511
-1.61003
-0.440502
1.38506
2.63328
3.12345
3.8586
6.152
8.16476
9.36827
10.6087
12.0164
8.10915
-2.9107
-8.20413
-5.39368
-4.54577
-6.61179
-7.61611
-6.40238
-3.3453
1.51996
6.30449
8.84992
7.78319
4.08057
0.140915
-1.64339
-0.0591286
2.78035
4.31772
3.46626
-0.87929
3.96479
5.16368
1.60814
-1.50601
-2.22367
-1.45937
-0.495467
1.01023
1.17764
-0.569655
-2.44406
-2.86538
-2.25163
-1.99037
-3.58908
-5.11294
-6.18899
-7.35662
-8.32568
-4.92668
2.02003
3.00035
1.16434
3.96551
7.29811
8.04727
6.40869
3.58779
-0.221855
-3.82704
-5.83104
-5.18782
-2.84186
-0.450718
0.0965099
-1.95938
-3.78817
-4.04121
-3.49789
-0.656442
5.07709
5.32449
1.8453
-0.945131
-1.39967
-0.859514
-0.278328
0.519267
1.4555
1.50556
0.491978
-1.11733
-2.61546
-4.1103
-6.11918
-7.85789
-8.74066
-9.6255
-10.9222
-8.10593
1.58951
7.96149
5.97591
2.5814
2.68363
3.45874
3.04169
1.12007
-2.30335
-5.82708
-7.60629
-6.68351
-3.7172
-0.481077
1.66234
1.5675
-0.791425
-2.50345
-1.00465
2.76039
-1.61319
-1.40422
-0.22595
0.344632
0.335538
0.0622968
-0.181314
-0.600543
-0.636132
-0.113319
0.587914
0.752574
0.624929
0.656644
1.30953
2.09754
2.78279
3.45592
3.74528
2.32853
0.120608
-0.128388
0.365401
-0.845744
-2.07065
-2.20336
-1.61069
-0.87421
0.038696
1.06214
1.69289
1.65928
1.3142
0.931143
0.768126
1.20247
1.68824
1.32708
0.300526
-0.644539
-1.30137
-1.6616
-0.533889
0.391456
0.523276
0.336223
0.145918
-0.094072
-0.356714
-0.336932
-0.0708732
0.383816
0.769628
1.13669
1.65432
2.0315
2.15039
2.31108
2.59611
1.61846
-0.585907
-1.7547
-1.57976
-0.669078
-0.740804
-1.00941
-0.837325
-0.306438
0.593475
1.58812
2.11623
1.71549
0.752051
-0.137158
-0.640962
-0.545938
0.126413
0.734895
0.473833
-0.520468
-0.178591
-0.493316
-0.302093
0.130926
0.223784
0.16682
0.109337
0.0644598
-0.0192207
-0.0789028
-0.0901268
0.034889
0.247129
0.425916
0.537971
0.551012
0.457464
0.405567
0.562064
0.410818
-0.268912
-0.330439
-0.487909
-0.36839
-0.117455
-0.151273
-0.189655
-0.0744478
0.187902
0.464194
0.599039
0.483174
0.174922
-0.104586
-0.254345
-0.260016
-0.121122
0.114361
0.173393
-0.10238
-0.0134598
-0.0436974
-0.146571
-0.0242973
0.0472531
0.0479071
0.0374235
0.0350926
0.0291078
0.00154928
-0.02327
-0.0249533
0.0326595
0.0988438
0.104843
0.0615579
0.025255
-0.0223813
-0.00671595
0.134628
-0.126465
-0.097066
0.0818708
-0.15175
-0.0636817
0.0220988
-0.0128329
-0.017757
0.0119823
0.020999
0.0142988
0.0337311
0.0244368
-0.0129061
-0.029787
-0.0225572
-0.0292969
-0.0167777
0.0446493
-0.016505
-0.023708
0.0464562
-0.0107342
-0.0398945
-0.0183616
-0.00319559
0.00369702
0.00412912
0.0104835
0.0131738
0.0120635
0.000409928
-0.0175229
-0.0249621
-0.0431778
-0.0512983
-0.026685
-0.012402
-0.0479838
-0.00364914
-0.0553852
-0.174511
0.0831716
0.0316041
-0.0310387
0.0178525
0.0155301
0.00367373
-0.00603705
-0.0301651
-0.0453473
-0.0257049
-0.00152417
-0.00271605
-0.00751414
0.00965184
0.0183178
-0.0120787
-0.00921025
0.00327549
-0.011652
0.0271837
0.0344308
-0.0102081
-0.0212172
-0.0163793
-0.00958205
-0.00775842
-0.00453935
0.00377844
0.00885409
0.00693206
-0.0121244
-0.038084
-0.0499743
-0.0363435
-0.0164799
-0.00132401
-0.00212711
-0.0171483
-0.0206
-0.0962544
-0.0253139
0.0332574
-0.00348347
0.000747327
0.00666901
0.00172717
-0.00421713
-0.0101599
-0.0102811
-0.00510308
0.000105497
-0.00243985
-0.00923295
-0.00679387
0.00679391
0.00309319
-0.00849693
0.000477239
-0.00220343
0.00861666
0.0264295
0.00667097
-0.00769367
-0.00934944
-0.00635456
-0.00356721
-0.00356875
-0.00257764
3.13787e-06
0.00097139
-0.00523878
-0.0160988
-0.0168057
-0.0101047
-0.00523568
-0.00317227
-0.000729099
-0.000904807
-0.00769936
-0.0260337
-0.0311092
0.00245421
0.00300305
-0.00198505
-3.57595e-05
-0.000406234
-0.00175028
-0.00157376
-0.00064473
2.8499e-05
2.62045e-05
-0.000448121
-0.00149042
-0.00570017
-0.00244687
0.00168516
-0.000844283
0.00139662
0.000111198
0.00271258
0.0113315
0.00533357
-0.00181716
-0.00272903
-0.00122294
-0.000266901
-0.000871476
-0.00153998
-0.00171262
-0.00144878
-0.00201169
-0.00268337
-0.00145604
-0.000705827
-0.000979825
-0.00120413
-0.000211761
-1.82203e-05
-0.00271161
-0.00667694
-0.0136884
-0.00231558
0.00237554
-0.00127094
-0.00193425
-0.00108523
-0.000423792
-0.000444831
-3.34943e-05
2.03021e-05
-3.6348e-07
-1.79631e-05
0.000287259
-0.000685189
-0.00137756
0.000170095
0.000166836
0.0012792
0.000340434
0.000615778
0.00277664
0.00077043
-0.00121005
-0.00124628
-0.000459519
-2.8073e-06
0.000151009
-0.000104789
-0.000366225
-0.000723365
-0.000584513
-0.000166133
-2.81746e-05
-1.91377e-05
-0.000202532
-0.000475343
0.000433142
-0.000163214
-0.000582496
-0.00167479
-0.00428671
-0.00066574
0.000952272
-0.00101019
-0.000896118
-0.000740627
-0.000385968
-0.000266598
-4.76446e-05
-1.5245e-05
-2.48515e-07
2.91024e-06
1.52624e-05
-2.12204e-06
-0.000338814
6.88202e-05
-6.84328e-06
0.000361977
6.2243e-05
5.74525e-05
0.000174318
-0.000383633
-0.000636945
-0.000465518
-0.000253965
-8.26481e-05
7.53167e-05
0.00011886
7.63693e-05
-3.92573e-05
-0.00010279
-4.57583e-06
-3.72944e-06
-1.30877e-06
-1.68279e-06
-8.27859e-06
2.32617e-05
2.84382e-05
9.14946e-05
-0.000745449
-0.00149141
0.000116324
9.15921e-05
-0.000621297
-0.000425894
-0.000256366
-0.000210434
-2.01166e-05
-2.46558e-08
1.45651e-07
4.61149e-09
-6.18054e-07
1.76835e-05
-7.52657e-06
-3.04724e-05
2.19338e-05
1.16203e-05
-9.84614e-05
-0.000183298
2.14655e-07
-0.000186513
-0.000175332
-0.000130461
-4.54266e-05
-8.0219e-05
-6.40327e-06
1.84025e-06
5.96136e-06
3.3342e-06
2.49663e-06
3.80293e-07
-1.50619e-07
-5.51954e-08
3.6087e-07
3.0039e-07
-2.07002e-06
-1.02399e-06
4.04907e-06
3.73074e-05
-0.000346381
-0.000576541
1.17769e-05
-1.75468e-05
-0.000150067
-0.000203921
-2.0449e-05
-1.45176e-06
-3.90084e-08
-1.81109e-09
-1.71294e-09
-8.19282e-11
1.27481e-08
-2.26607e-07
1.35454e-06
2.88615e-08
2.14431e-07
1.74153e-06
-0.000123644
-8.23733e-06
3.60295e-06
-3.85186e-05
-2.47901e-05
-7.90243e-06
-2.22191e-06
-3.20187e-07
-7.59874e-08
4.46999e-09
8.02484e-09
6.68312e-09
2.79879e-08
3.5154e-08
1.1241e-09
-5.14557e-10
2.30218e-09
-1.87836e-09
2.21392e-08
3.89945e-09
-2.38936e-08
5.29148e-07
-1.00876e-05
-3.08651e-05
4.53963e-06
-7.52197e-06
-1.26035e-05
-2.49713e-06
-1.82866e-07
-8.46417e-09
-2.61732e-10
-6.56429e-12
1.49548e-11
1.62596e-13
-1.45439e-10
1.90427e-09
-5.72454e-09
1.8252e-09
-1.61616e-08
1.11319e-07
-5.27276e-06
7.66702e-07
8.3849e-08
-2.82622e-06
-4.23094e-07
-5.57058e-08
-5.97512e-09
2.27195e-11
1.48308e-11
-1.84556e-11