/*--------------------------------*- C++ -*----------------------------------*\
| =========                 |                                                 |
| \\      /  F ield         | OpenFOAM: The Open Source CFD Toolbox           |
|  \\    /   O peration     | Version:  5.0                                   |
|   \\  /    A nd           | Web:      www.OpenFOAM.org                      |
|    \\/     M anipulation  |                                                 |
\*---------------------------------------------------------------------------*/
FoamFile
{
    version     2.0;
    format      ascii;
    class       volScalarField;
    location    "50.4676134421789371";
    object      MDv1;
}
// * * * * * * * * * * * * * * * * * * * * * * * * * * * * * * * * * * * * * //

dimensions      [0 1 -2 1 0 0 0];

internalField   nonuniform List<scalar> 
60000
(
-0.000100985
-9.82542e-05
-3.97001e-05
2.30699e-05
4.96469e-05
2.54228e-05
-9.25344e-07
-1.08307e-05
5.15528e-06
-1.95889e-05
-5.75517e-05
-7.93047e-05
-4.46395e-05
9.16773e-06
3.32817e-05
5.53358e-05
8.94271e-05
0.000106221
3.71019e-05
-8.4898e-05
-0.000150056
-0.000120088
-2.55104e-05
0.000125534
0.000272634
0.000336262
0.000259641
9.61532e-05
-4.4632e-05
-7.34498e-05
-2.23521e-05
8.50041e-06
-1.69835e-05
-5.73668e-05
-8.34223e-05
-4.07746e-05
2.62407e-05
3.57341e-05
-4.03365e-06
-6.04751e-05
5.96346e-05
3.58656e-05
1.50364e-05
-4.02209e-06
-8.55869e-06
3.64552e-06
8.06278e-06
1.3916e-07
-1.13104e-06
2.07699e-05
3.79853e-05
2.38973e-05
-1.51597e-05
-1.64181e-05
1.56835e-05
3.69295e-05
2.73153e-05
6.399e-06
-2.7998e-05
-0.00010207
-0.000175285
-0.000132192
-1.40968e-05
6.38411e-05
8.26235e-06
-0.000102783
-0.000142279
-9.19933e-05
-5.74185e-05
-7.57331e-05
-5.2012e-05
4.4908e-05
0.000129055
0.000141053
8.48924e-05
-3.8928e-05
-2.93867e-05
3.84344e-05
8.20363e-05
8.6448e-05
0.000273902
0.000273571
8.97754e-05
-8.2419e-05
-0.000131696
-6.02604e-05
3.60409e-06
2.77745e-05
-1.42535e-05
4.28718e-05
0.000141149
0.000221266
0.000138923
-4.15081e-05
-0.00013925
-0.000224023
-0.000321256
-0.000358134
-6.69472e-05
0.000377225
0.000585039
0.000441044
8.93858e-05
-0.000459653
-0.00101503
-0.00131518
-0.00109918
-0.000516217
4.59769e-05
0.000205978
3.39733e-06
-0.000156014
-6.27674e-05
0.000108488
0.000255607
0.000183867
-0.000119486
-0.000183811
-5.39906e-05
0.000132655
5.22893e-05
8.82278e-05
4.6905e-05
-1.41543e-05
-4.3594e-05
-3.80505e-05
-1.59659e-05
7.33773e-06
-2.01954e-06
-8.62604e-06
1.4436e-05
5.34002e-05
6.783e-05
2.26637e-05
-3.77096e-05
-7.75393e-05
-0.000106135
-0.000115288
-3.03646e-05
0.000155439
0.000249581
0.000196704
3.86802e-05
-0.000163686
-0.000285126
-0.000276986
-0.000156551
1.278e-05
0.000157082
0.000192293
0.000107168
-1.32283e-05
-6.22657e-05
-2.69502e-05
4.08962e-05
8.48788e-05
1.86535e-05
-7.90937e-05
-9.09951e-05
-3.09944e-05
3.36224e-06
1.42861e-05
1.14071e-05
1.64446e-06
-2.39699e-06
-2.75329e-06
-2.4436e-06
-8.06542e-07
2.25636e-07
-2.82772e-06
3.50074e-07
6.82792e-06
1.03958e-05
8.77209e-06
7.21728e-07
-7.54668e-06
-1.24368e-05
-1.30452e-05
-4.33617e-06
3.38093e-05
4.68491e-05
3.25734e-05
1.07023e-05
-2.15082e-05
-3.2552e-05
-2.21436e-05
-9.26316e-06
7.9244e-06
3.58606e-05
5.15965e-05
3.49393e-05
1.22257e-05
2.44919e-07
-2.6162e-06
2.54388e-06
1.33688e-05
9.37034e-06
-4.63298e-06
-1.331e-05
-1.1015e-05
-1.01551e-06
-1.83802e-07
-6.0817e-07
-1.4104e-07
5.26656e-07
7.13658e-07
6.91091e-07
1.19298e-08
-1.8847e-07
-4.39656e-07
-4.49737e-07
5.36496e-07
-7.06466e-07
-1.8801e-06
9.20102e-07
3.57951e-06
1.52777e-06
-3.65906e-06
-3.93244e-06
6.76729e-06
1.79592e-05
-8.25794e-07
-9.97218e-07
6.65392e-06
7.50809e-06
3.61325e-06
1.2664e-06
-1.27787e-07
1.95095e-06
8.05675e-06
8.44932e-06
1.9128e-06
-5.0083e-08
2.36603e-06
1.31147e-06
5.97576e-07
9.81865e-07
2.6239e-07
1.37923e-06
-6.65173e-07
6.48598e-07
-4.13862e-08
-1.11847e-06
-9.77132e-07
-1.95492e-07
7.62181e-08
1.47358e-07
4.50976e-07
1.36196e-07
-5.16464e-08
-1.97331e-07
-3.57823e-08
-7.29525e-07
-2.42895e-06
-1.56289e-06
3.01834e-06
4.4753e-06
-6.26822e-07
-2.09831e-06
-4.22668e-07
8.6891e-06
-3.49388e-06
-4.72525e-06
5.10157e-06
6.06705e-06
2.4661e-06
5.74541e-07
4.68707e-07
7.23622e-09
6.32666e-07
2.05666e-06
1.06411e-06
-1.24602e-06
-1.36343e-06
5.576e-07
3.17579e-07
-1.03867e-07
-4.30497e-07
7.00687e-07
1.6945e-06
6.11688e-07
4.03105e-07
7.46784e-09
-2.3049e-07
-1.27275e-07
-8.99496e-08
-1.64433e-07
3.83965e-08
1.07315e-07
-3.37429e-08
-9.90777e-08
-6.9856e-08
-2.05948e-07
-1.0318e-06
-1.0653e-06
1.2091e-06
2.82238e-06
1.1162e-06
-9.05381e-07
1.55994e-06
2.99079e-06
-1.76515e-06
-4.07197e-06
1.77235e-06
3.3048e-06
1.14021e-06
1.14649e-08
-1.60575e-08
1.27378e-07
-2.43151e-10
-4.54338e-08
3.74051e-07
4.59272e-08
-8.50736e-07
-8.39199e-07
-2.25011e-08
1.5323e-08
-1.52162e-07
-2.41618e-07
3.66343e-07
1.42733e-07
2.12347e-07
1.46008e-07
3.26439e-08
1.68774e-09
-3.8029e-09
-3.2534e-08
-3.796e-08
-9.72189e-09
-2.30376e-08
-2.89475e-08
-3.32967e-08
-7.22874e-08
-3.48992e-07
-2.40823e-07
3.48363e-07
7.91238e-07
1.1133e-06
-2.7844e-07
1.50014e-06
2.62501e-06
-9.32699e-07
-2.32104e-06
7.54786e-07
1.41475e-06
3.88761e-07
4.13864e-08
-4.38862e-09
-4.94284e-09
4.53437e-08
4.28723e-09
-7.67213e-08
4.09571e-08
9.09383e-09
-1.93819e-07
-1.84752e-07
-3.94994e-08
-2.27475e-08
-8.39355e-08
-4.65287e-08
3.14682e-09
4.36077e-08
5.35973e-08
2.90294e-08
9.84785e-09
-6.41923e-10
-1.81732e-10
-3.31152e-09
-4.92293e-09
-4.77025e-09
2.45204e-08
1.70477e-08
-4.20409e-08
-8.8229e-08
2.98783e-08
8.6147e-08
3.94494e-08
3.27605e-07
4.51403e-08
3.48759e-07
1.79395e-06
-3.00466e-07
-7.62847e-07
6.43715e-07
4.83203e-07
8.00323e-08
-2.49049e-09
-6.32722e-09
-1.31278e-10
-2.95465e-09
1.26977e-08
6.12627e-09
-1.62062e-08
2.34281e-09
2.9281e-09
-2.56426e-08
-2.87694e-08
-1.46447e-08
-1.50631e-08
-2.31619e-08
-3.55868e-09
3.48205e-09
1.1283e-08
8.46741e-09
6.77197e-09
1.78224e-10
-3.53069e-11
-1.0367e-11
1.18143e-10
-1.26185e-09
9.41369e-09
2.21838e-08
-2.35638e-08
-1.32467e-09
3.76795e-08
2.80621e-08
-1.81351e-08
3.39216e-08
4.42112e-08
-1.84403e-08
4.82907e-07
-9.58634e-09
-2.74345e-07
3.23733e-07
1.15318e-07
8.22991e-09
-4.55769e-09
-1.55756e-09
-3.64242e-10
-2.82896e-10
-4.64726e-10
6.91626e-10
3.44626e-09
-6.86293e-10
-4.04545e-10
1.56766e-10
-2.66175e-09
-3.82315e-09
-3.74099e-09
-3.85979e-09
-1.4054e-10
-8.9749e-12
1.14044e-09
8.45854e-10
1.06777e-10
9.6611e-13
-2.90305e-11
-1.54595e-11
3.84633e-11
-9.71001e-12
8.87348e-11
5.43783e-09
-3.30091e-09
3.42493e-09
1.29508e-08
6.5642e-09
-8.75171e-10
2.45627e-09
2.00987e-08
-1.297e-08
7.7646e-09
1.74705e-08
-1.24756e-07
2.53188e-08
2.03146e-08
-1.79298e-09
-4.5047e-09
-1.34761e-10
1.68292e-12
2.08382e-11
-3.05196e-11
-2.21297e-11
8.53445e-12
2.21023e-11
-4.07854e-12
-4.34584e-12
-2.37692e-12
-7.62934e-11
-9.90733e-11
7.09255e-11
-4.12364e-11
-9.57655e-11
-2.34786e-11
1.418e-11
1.57116e-12
5.61367e-14
1.3355e-13
-2.59251e-13
9.62632e-13
1.17936e-11
-2.44888e-11
1.54485e-09
-1.22331e-10
1.39596e-09
9.80986e-10
-4.37753e-10
-1.08614e-10
-1.5574e-10
5.8027e-09
3.22211e-09
-2.5259e-08
-1.81248e-09
-3.00289e-08
-2.457e-08
-5.1666e-09
-3.29503e-09
-9.70888e-11
-2.11583e-12
-5.71486e-14
-1.45285e-13
1.44972e-13
1.19662e-13
-3.57506e-14
-6.65561e-14
-5.2072e-15
2.501e-14
-8.8682e-14
2.1348e-12
-1.32083e-13
2.02208e-12
-6.32706e-14
-1.23789e-12
-1.74375e-12
-2.14335e-13
-1.20354e-15
8.3054e-16
4.13551e-17
-5.98574e-15
5.40028e-14
-3.91016e-13
-1.02164e-11
8.14126e-11
1.36259e-10
-2.03869e-10
-1.03602e-10
-1.97288e-11
6.91826e-11
-4.85548e-11
2.09057e-10
5.3051e-09
-7.60158e-09
-4.94989e-09
-1.33755e-09
-6.02923e-09
-4.90505e-09
-1.48407e-10
-2.6034e-12
4.98422e-15
2.63848e-15
6.68653e-16
-3.19554e-16
-3.55764e-16
1.05634e-16
2.0194e-16
6.05201e-17
-5.95913e-17
-3.07206e-16
9.50683e-15
7.96241e-15
2.03481e-14
2.94638e-16
-6.55485e-15
-2.2703e-14
-4.23033e-15
-1.64646e-16
-1.0152e-18
5.20406e-19
3.47479e-17
-7.0567e-16
5.39302e-15
3.76773e-14
1.89596e-12
-3.13901e-11
-3.86296e-11
-3.3847e-12
-2.31427e-13
1.71664e-14
-2.61998e-12
-1.40303e-11
1.37708e-11
4.71316e-11
-2.97482e-11
5.6476e-11
-1.49591e-10
-2.4659e-11
-5.11522e-13
-1.19577e-15
-2.5396e-16
-2.09199e-17
-1.67716e-18
2.52073e-19
4.23456e-19
-1.16109e-19
-3.76756e-19
-2.47949e-19
-4.69602e-20
-3.87286e-19
1.13461e-17
5.76828e-17
-1.42705e-16
-2.71849e-18
-2.77443e-17
-1.56833e-16
-2.84732e-17
-1.0373e-18
-4.32557e-20
4.44636e-20
6.25162e-20
1.1185e-19
-1.61305e-17
2.97702e-16
-2.60255e-15
-1.28794e-13
-4.21817e-13
-4.7572e-14
-1.30906e-16
3.91611e-16
-2.96796e-15
3.40546e-15
5.2055e-14
1.59305e-14
-6.49358e-15
1.4043e-13
-4.94046e-13
-8.50343e-14
-1.3069e-15
7.6485e-17
4.83782e-18
1.52014e-19
3.08969e-20
-9.84095e-20
4.9317e-20
-6.02301e-21
6.1531e-20
-2.11759e-20
-1.41745e-19
-6.63107e-20
6.15585e-20
2.12106e-19
-7.02632e-19
3.02836e-20
-1.00798e-21
-5.13511e-19
-8.21929e-20
5.36669e-22
-5.22749e-21
-9.45167e-20
5.97979e-20
-2.51069e-20
-2.18358e-20
2.0333e-19
-1.83282e-17
2.3496e-17
-1.43789e-15
-1.45252e-16
4.16843e-17
3.82337e-18
8.35341e-20
1.69141e-16
-4.4139e-16
-3.0141e-16
-2.22377e-18
8.94497e-17
-1.6326e-16
7.44776e-17
2.00447e-17
1.10249e-18
7.93238e-20
1.13665e-19
-1.62907e-20
-4.47157e-20
-2.26871e-20
1.77699e-20
4.62217e-21
-5.48944e-20
1.13359e-19
6.03119e-23
-1.76594e-20
-2.64019e-20
-4.07605e-20
-6.42467e-21
1.00871e-19
-4.83905e-20
-2.41954e-20
6.73897e-21
2.60464e-20
-1.41214e-19
9.00298e-20
1.52313e-20
1.17692e-19
-6.81844e-20
3.45464e-20
8.63551e-19
1.57054e-17
4.53012e-18
3.89082e-19
-6.2606e-20
5.37446e-20
-8.26426e-19
1.29073e-18
2.94655e-19
-1.85121e-20
2.66366e-18
6.71564e-18
8.74023e-19
5.47265e-20
3.32602e-20
-7.86879e-21
7.97183e-20
-2.86441e-20
5.71651e-20
-3.5201e-20
-1.41368e-19
-1.19508e-19
-3.91147e-21
-2.43481e-20
1.59659e-19
-8.77779e-20
3.93099e-20
-1.67821e-20
7.16255e-22
3.00125e-20
-6.32378e-20
-4.99581e-20
4.80966e-20
2.73178e-20
1.32285e-20
-9.26481e-20
-2.27215e-20
8.26148e-20
-5.3228e-20
4.68197e-20
1.02768e-19
3.90125e-19
5.74465e-20
3.69165e-20
-5.55454e-20
7.90893e-20
-5.82446e-20
4.30697e-20
2.14416e-20
5.24769e-20
1.04909e-20
-1.76916e-20
-6.2368e-20
2.96879e-20
-5.78978e-20
3.07448e-20
-6.86847e-22
-4.47477e-20
8.61605e-20
1.55078e-20
-1.17163e-19
-3.89379e-20
8.60075e-20
3.38485e-20
-3.03384e-20
4.32721e-20
1.33924e-20
2.41763e-20
8.139e-20
4.03667e-20
-7.55291e-21
7.77455e-21
8.49567e-21
-1.40581e-19
6.90241e-20
8.68852e-20
-1.10558e-19
6.19024e-20
2.2431e-20
-1.55622e-20
4.345e-20
-7.48013e-20
-1.09749e-20
-6.45399e-20
2.80437e-21
2.04631e-20
3.62812e-20
-2.90452e-20
-3.69095e-20
9.628e-22
-4.06084e-20
1.80319e-20
4.88922e-20
-1.05038e-19
2.91176e-21
2.65736e-20
-1.63561e-20
4.04483e-20
6.39966e-20
-7.68088e-21
9.9743e-20
1.71299e-19
-2.7699e-19
5.21124e-20
-9.68167e-20
-5.47083e-20
4.68153e-20
-1.03622e-19
3.7759e-20
-8.21987e-21
-5.58696e-20
2.5702e-20
-4.05223e-21
-7.51948e-20
-3.73246e-20
-8.03247e-20
1.00922e-19
-3.49658e-20
-9.44989e-20
-7.70568e-20
-5.93706e-20
-7.59424e-20
6.54537e-20
4.6572e-20
-2.36698e-20
4.83058e-20
1.89071e-20
-4.82067e-20
8.10757e-20
2.75609e-21
-1.46096e-20
8.80406e-20
7.49393e-20
-7.30779e-22
1.57519e-20
3.31696e-21
-1.45997e-21
-2.97072e-20
-2.49943e-20
-4.24839e-20
2.45649e-20
-6.81153e-20
-8.62569e-20
7.5725e-20
4.28184e-20
-5.42537e-20
2.02242e-20
2.14338e-20
2.45787e-20
-3.52156e-21
-9.57777e-21
1.47689e-20
-1.71118e-21
8.12189e-20
-1.94038e-20
-3.11349e-20
3.76408e-20
4.25517e-20
-9.34902e-20
1.34918e-20
5.57859e-20
3.75264e-20
-3.51134e-20
1.16567e-20
-3.47374e-21
3.13151e-20
6.1602e-20
-6.19346e-20
5.79712e-20
9.57075e-20
2.21371e-20
-5.52808e-20
5.24971e-20
-6.89316e-21
-8.48768e-21
-8.63649e-21
6.24056e-22
-6.61432e-20
5.89191e-20
1.79049e-19
9.07991e-21
-1.0707e-20
-9.43124e-20
-2.20135e-20
7.28504e-20
9.35667e-20
-9.81014e-20
7.54915e-20
-2.94805e-20
2.11596e-20
4.3192e-20
1.33324e-20
-1.1528e-19
2.01249e-20
6.89226e-20
1.10598e-19
-1.99595e-20
1.45122e-20
2.8063e-20
-1.60679e-21
-6.92464e-20
6.56899e-21
1.13146e-20
3.80583e-20
5.54409e-20
2.43498e-20
2.62024e-20
2.51196e-20
-9.43277e-21
1.93252e-20
-3.56255e-20
-3.40073e-20
-2.32482e-20
-3.45665e-20
-2.62606e-20
8.13004e-21
4.5258e-20
2.7406e-20
-2.71425e-20
-7.7218e-20
1.06298e-19
2.75932e-20
1.41521e-21
2.88137e-20
-1.77953e-20
-7.14807e-20
4.38826e-21
-9.75994e-21
8.52395e-21
-6.3446e-20
-3.47258e-20
3.79029e-20
-1.93916e-20
4.16654e-20
1.32591e-19
4.02643e-20
-1.28066e-19
2.89534e-20
-5.09134e-20
-1.46085e-20
3.65993e-20
4.19664e-20
5.46793e-20
7.04512e-20
1.23416e-20
-1.17003e-20
-2.4584e-20
-7.34798e-21
3.70247e-20
-6.73674e-20
-4.32979e-21
-3.23863e-20
4.1961e-20
-8.69437e-21
-6.53977e-21
5.06195e-21
1.40626e-20
-1.09057e-20
-3.07388e-20
2.22505e-20
6.52709e-20
-3.28066e-20
-6.02926e-21
2.37563e-20
1.3369e-20
-1.94469e-20
-1.52608e-21
2.0706e-20
3.71183e-20
4.23558e-20
-5.07906e-23
-4.43615e-21
7.80388e-20
-3.72354e-20
-5.1567e-20
-7.95659e-21
8.73421e-20
1.15236e-19
-2.2416e-20
-8.09808e-20
-8.89233e-20
2.42667e-20
-3.59741e-20
-6.94929e-20
-5.29096e-20
2.40515e-20
-4.36528e-21
2.03997e-20
7.43992e-20
3.52996e-20
3.46595e-20
2.38456e-20
-1.58651e-20
2.50952e-20
9.94785e-22
-1.23351e-21
2.03282e-20
1.15109e-20
-2.00077e-20
-1.52747e-20
2.17816e-20
-1.04328e-20
-6.2116e-20
1.55649e-19
-4.22075e-22
-1.92797e-21
1.08789e-20
-4.34704e-20
-5.24708e-05
-5.60229e-05
-2.94578e-05
1.88844e-05
6.05587e-05
7.71756e-05
6.1474e-05
3.44375e-05
-1.66656e-06
-1.27087e-05
-1.03013e-05
2.47386e-05
7.21269e-05
0.000110618
0.000149361
0.000196396
0.000231057
0.000227523
0.000162412
3.27848e-05
-7.81913e-05
-8.54483e-05
-3.69366e-05
-5.85668e-06
4.51199e-05
6.51278e-05
2.13123e-05
-3.0303e-05
-1.43154e-05
6.3272e-05
0.000134541
0.000144416
0.000101498
2.19669e-05
-4.70243e-05
-2.98334e-05
3.64443e-05
2.06446e-05
-2.41033e-05
-4.06312e-05
-6.722e-06
1.89676e-06
1.2978e-05
1.23238e-05
9.84496e-06
1.53426e-05
1.98257e-06
-3.26149e-05
-6.02063e-05
-6.44058e-05
-5.44326e-05
-5.07956e-05
-4.38612e-05
-2.41096e-05
-4.44629e-06
-2.31423e-06
-9.54413e-06
5.37599e-07
8.91937e-06
-5.36288e-05
-0.000208745
-0.000253314
-0.000125658
4.33228e-05
0.000150606
0.000199299
0.000187554
0.000135715
4.63563e-05
-2.96724e-05
-4.72544e-05
-1.76892e-05
1.94983e-06
2.92228e-05
-2.76254e-05
-0.00017724
-0.000132489
-1.56191e-05
1.28806e-05
2.16991e-06
9.93355e-05
9.69132e-05
3.51704e-05
-6.34434e-05
-0.00016355
-0.000224786
-0.000171987
-6.23513e-05
7.11081e-05
9.68033e-05
8.25673e-05
-2.89857e-05
-0.000182739
-0.000332287
-0.000501176
-0.000720877
-0.000926791
-0.000995981
-0.000771912
-0.000206326
0.000317968
0.000359861
0.000144424
-2.94551e-05
-0.000251195
-0.000377837
-0.000233418
-2.41944e-05
-5.57991e-05
-0.000345519
-0.000630864
-0.000678646
-0.000519779
-0.000209187
0.000143518
0.000227374
-6.17919e-05
-4.09175e-05
5.75741e-05
8.01042e-05
4.40287e-05
4.96813e-05
2.18458e-05
-2.3393e-05
-5.54306e-05
-7.19721e-05
-5.4227e-05
-4.43887e-06
5.01078e-05
6.9878e-05
5.83632e-05
2.58965e-05
-2.06149e-05
-6.71281e-05
-0.000108646
-0.000145194
-0.000172308
-0.000182432
-0.000132022
4.22815e-05
0.000255988
0.000288439
0.0001448
-2.61613e-06
-0.000115946
-0.000151595
-8.57425e-05
7.11613e-06
2.94422e-05
-2.83187e-05
-0.00010469
-0.000132759
-8.70606e-05
-4.53651e-06
0.000109833
0.000203463
0.000136214
-3.06121e-06
-9.72082e-06
2.13341e-05
2.93608e-06
6.1931e-06
5.52287e-06
-2.8456e-07
-3.63166e-06
-4.85606e-06
-6.33736e-06
-1.27429e-06
7.22583e-06
1.08418e-05
9.35511e-06
7.30739e-06
2.32479e-06
-3.33577e-06
-8.16038e-06
-1.04115e-05
-9.6904e-06
-9.83753e-06
-1.05285e-05
1.59043e-05
6.61424e-05
6.25942e-05
3.0468e-05
4.00507e-06
-1.77795e-05
-2.32714e-05
-1.10562e-05
7.79175e-06
1.48786e-05
6.31404e-06
-2.86993e-06
-4.86458e-06
3.17595e-07
9.84122e-06
2.38044e-05
3.73511e-05
2.84585e-05
3.49586e-06
-7.07467e-06
-3.23082e-06
-1.72415e-06
-2.38674e-06
-1.17493e-06
1.6404e-06
2.77907e-06
2.62281e-06
9.90494e-07
-9.28215e-07
8.94689e-07
1.36025e-06
-9.46702e-07
-8.90356e-08
9.87529e-07
2.86596e-06
3.82242e-06
2.56365e-06
1.3336e-06
1.69661e-06
-9.20137e-07
-1.86408e-06
1.65307e-05
1.65425e-05
-1.5613e-06
-1.11492e-06
2.17286e-06
3.32195e-07
-1.20464e-06
-6.47093e-08
1.76289e-06
1.17006e-06
-2.56972e-07
-1.22446e-07
1.34787e-07
3.40181e-07
1.77591e-06
4.78294e-06
3.19428e-06
-3.60775e-07
2.58724e-06
-4.04644e-07
-1.57467e-07
-2.15075e-06
-2.64206e-06
-6.32818e-08
1.72936e-06
1.58082e-06
9.03966e-07
-1.29127e-07
-3.35892e-07
5.88004e-07
-1.63877e-06
-2.61314e-06
-1.27121e-06
1.23348e-06
3.48542e-06
2.68028e-06
9.3669e-07
1.06219e-06
1.4075e-06
-8.49128e-07
4.65835e-06
9.8103e-06
-3.05987e-06
-3.14834e-06
2.92103e-06
2.37082e-06
4.43343e-07
-3.16444e-07
1.18225e-07
4.12961e-07
-5.37267e-08
-2.92904e-07
-2.92264e-07
-6.37248e-07
-3.32411e-07
7.69264e-07
1.0346e-06
-1.3942e-06
1.60125e-06
2.60277e-06
1.06231e-06
-5.21347e-07
-1.47069e-06
-4.55971e-07
6.75202e-07
5.70006e-07
2.30294e-07
4.54167e-08
-1.86552e-07
-7.98404e-08
-2.25734e-07
-1.6253e-06
-1.38863e-06
2.35756e-07
1.62108e-06
1.18588e-06
2.40269e-07
6.33907e-08
6.96075e-07
3.08003e-09
1.47233e-06
5.72602e-06
-6.83071e-07
-2.12952e-06
1.19008e-06
1.29389e-06
2.72922e-07
-1.21466e-07
-9.45991e-08
-2.57586e-08
1.6196e-08
-2.75971e-08
2.34882e-08
-8.59742e-08
-3.73253e-07
8.46399e-08
6.00959e-07
-2.64635e-07
-4.6587e-07
1.6198e-06
6.3431e-07
2.17434e-07
-3.9526e-07
-2.11554e-07
2.58549e-07
2.49993e-07
9.07781e-08
-3.30203e-08
4.81911e-08
-1.25167e-07
1.93266e-08
-4.37005e-07
-6.31814e-07
-2.77605e-08
5.09271e-07
3.62982e-07
5.59949e-08
-7.53052e-08
2.38582e-07
-7.68029e-09
4.89628e-07
2.66851e-06
-2.24472e-07
-1.03556e-06
4.22871e-07
5.11532e-07
1.09865e-07
-2.82242e-08
-2.21668e-08
-5.7604e-09
-9.54666e-10
1.58196e-09
-2.91906e-10
5.73539e-08
-6.84956e-08
-5.0297e-08
1.38706e-07
1.20969e-07
-3.07174e-07
1.41725e-07
8.83701e-08
1.77671e-07
2.64504e-08
8.80567e-09
1.22105e-07
1.12888e-07
5.11477e-08
-2.6267e-08
2.84551e-09
5.24649e-08
-3.6795e-08
-4.01359e-08
-1.20309e-07
-1.05779e-08
9.69924e-08
7.14441e-08
1.68061e-08
-4.97725e-08
7.12222e-08
-3.73859e-08
1.5232e-07
1.02901e-06
-2.29952e-07
-3.9503e-07
1.93942e-07
1.76444e-07
3.73092e-08
1.37828e-09
-4.7041e-09
-1.62035e-09
-2.28684e-10
1.84131e-09
2.63526e-09
1.71093e-09
2.00966e-09
-1.45391e-08
1.13823e-08
3.45752e-08
-2.67126e-08
-8.12465e-08
-2.00821e-08
4.32336e-08
7.34665e-08
6.48185e-08
5.71297e-08
2.79224e-08
1.07473e-08
-1.87712e-09
-1.08924e-08
3.46895e-08
9.31195e-09
-4.79075e-09
3.84322e-09
4.46059e-09
8.65753e-09
1.37713e-08
1.02999e-08
-1.97613e-08
1.06124e-08
-2.22508e-08
2.56046e-08
2.77765e-07
-1.22691e-07
-1.21867e-07
7.66328e-08
4.05568e-08
7.78623e-09
-1.32254e-11
-1.41833e-09
-1.32513e-10
-8.10316e-11
-1.70486e-10
1.74391e-10
-2.65122e-11
3.82228e-10
-5.67966e-10
5.23163e-12
1.6671e-09
3.40641e-09
-1.61736e-08
-7.67204e-09
-3.44408e-09
2.43145e-08
3.08623e-08
1.35111e-08
2.54285e-09
2.43274e-09
3.62923e-10
6.36549e-10
4.2697e-09
1.21208e-08
5.06229e-10
-4.78529e-09
-4.26714e-10
1.58214e-09
4.57363e-09
4.35809e-09
-1.89916e-09
2.67687e-09
-5.91698e-09
3.11895e-09
4.13828e-08
-3.69722e-08
-3.31077e-08
1.38867e-08
6.16429e-09
2.3198e-10
-2.00406e-10
-1.18032e-11
8.27209e-13
1.46938e-12
-1.19564e-11
-1.12515e-11
-1.72012e-11
1.02488e-10
5.76293e-12
7.84312e-10
-4.26774e-10
8.43158e-11
4.60579e-10
-2.47749e-10
-5.6023e-09
8.24915e-09
4.14345e-09
7.68699e-10
8.73518e-11
1.41204e-11
9.26361e-11
3.21827e-10
-7.18108e-11
2.46198e-09
4.74466e-10
-1.7437e-09
-1.08157e-09
5.18974e-10
1.18217e-10
1.56477e-10
-6.27152e-11
2.21674e-09
-1.14857e-09
1.27686e-09
-6.73429e-10
-7.68188e-09
-4.24269e-09
5.62812e-10
3.09798e-10
-1.19293e-10
-6.08313e-12
-1.11422e-13
-6.08717e-16
-1.32562e-14
1.0608e-13
2.60351e-13
-1.06994e-13
-1.24698e-12
4.65525e-12
-4.1158e-13
-1.1089e-11
-8.79302e-11
2.57152e-10
-8.31604e-11
-2.03855e-10
6.64683e-11
7.52875e-11
1.99643e-12
-2.48345e-13
-1.13745e-13
-4.75074e-13
2.04697e-11
1.77129e-11
-2.15986e-13
-1.23238e-10
-3.87513e-10
-7.07273e-11
9.20369e-12
3.78308e-12
2.34874e-13
-1.90298e-11
5.86055e-12
1.31955e-11
-7.28995e-11
-3.4843e-09
-4.77629e-10
5.08793e-10
-8.88898e-10
-1.461e-10
-6.27586e-12
-7.87298e-14
3.58494e-15
1.54684e-16
2.85036e-17
-3.65917e-16
-2.85342e-15
5.01547e-15
-1.44565e-15
-1.37723e-14
4.55021e-16
9.06834e-15
-8.98734e-13
1.3466e-12
1.01415e-13
-1.25972e-13
5.47739e-13
5.5205e-14
-1.9177e-14
-1.96461e-15
8.43026e-16
-3.23964e-15
-4.58066e-14
-6.96902e-14
-7.25925e-15
-1.30085e-13
-2.81108e-12
-1.05516e-12
3.84086e-14
-1.22098e-16
-2.08021e-14
2.69228e-13
-8.22724e-14
-1.48043e-12
3.65634e-11
-1.81827e-11
8.42015e-11
1.09977e-11
-4.80607e-11
-3.05724e-12
-3.055e-14
3.79524e-15
1.43561e-16
1.72498e-19
5.24779e-19
-2.00581e-18
6.47131e-18
-4.10844e-17
6.22726e-17
-8.78294e-18
1.30778e-17
-1.34518e-16
4.43527e-16
2.37558e-14
7.89999e-16
3.53649e-15
7.50947e-15
-7.36384e-16
-1.28515e-16
-4.99269e-18
-4.1715e-18
3.28205e-17
-7.72273e-17
7.88178e-17
3.07063e-17
-2.81897e-17
-9.1903e-15
-9.89736e-15
-6.52271e-16
-1.27481e-16
9.53073e-17
-1.011e-15
-4.20094e-16
1.62882e-14
-1.84288e-13
-1.1261e-14
2.98016e-13
-2.83346e-13
-4.43115e-13
-1.38204e-14
1.72895e-15
1.09222e-16
2.391e-18
-3.22143e-20
-1.01772e-19
3.35733e-20
1.7893e-19
-7.25656e-20
-2.63783e-19
2.192e-19
1.96401e-19
-1.15603e-18
9.99494e-18
7.7246e-17
4.41888e-19
-2.40604e-17
-1.12838e-17
-6.66932e-18
-1.73558e-19
8.74568e-21
-4.49372e-20
-1.85391e-20
4.97048e-19
3.94144e-19
-2.3282e-20
-2.02194e-18
-3.61774e-18
-6.93287e-17
-1.331e-17
-1.47288e-18
-1.01208e-19
4.71424e-19
3.0754e-18
-4.49337e-17
2.97188e-16
-1.92603e-17
5.98026e-16
3.47425e-15
1.51377e-15
3.41379e-16
2.02525e-17
2.61114e-19
-2.77723e-21
-3.1325e-20
-2.66868e-20
5.60188e-21
-2.059e-19
-2.58939e-20
-1.17856e-19
2.82787e-20
2.13303e-20
-6.53111e-20
5.53698e-20
6.35378e-19
9.68551e-20
-3.77361e-19
-1.05773e-19
-9.361e-20
-6.26041e-20
2.30018e-20
-2.23642e-20
-2.75309e-20
5.21338e-20
2.17995e-21
-4.26766e-20
-6.20912e-20
2.83962e-19
-1.85349e-19
-8.22549e-20
9.41787e-20
9.45857e-21
8.96277e-20
5.09887e-20
-3.01614e-20
-3.54554e-19
-1.80797e-19
1.81984e-18
6.07878e-17
2.22763e-17
7.94139e-19
-1.44735e-19
-5.42157e-21
6.9791e-20
1.35159e-20
-5.22223e-20
3.02187e-20
-1.63857e-20
6.64297e-20
-4.66544e-20
-4.72333e-20
-2.73036e-20
8.95116e-20
5.20138e-20
-8.19028e-21
2.20386e-20
-6.28565e-20
-2.04673e-20
-9.0274e-20
-5.15894e-20
1.48814e-20
-1.7684e-20
1.06334e-20
8.73562e-20
-1.03047e-19
3.17244e-21
1.27428e-19
-1.48333e-19
-5.54611e-20
5.60996e-20
2.04618e-20
1.44414e-20
4.20272e-21
-4.48808e-20
-6.20226e-21
-5.62284e-20
-1.61231e-20
-2.6212e-20
2.71964e-19
-1.03526e-19
2.58619e-20
1.66527e-19
1.29532e-19
-3.88394e-20
4.71836e-20
-7.7976e-21
-2.19004e-20
-6.2752e-20
2.49829e-19
1.65086e-19
-1.29645e-20
-5.73945e-20
1.38691e-20
1.6754e-20
8.59877e-21
-5.17893e-21
7.03009e-20
8.454e-20
9.82195e-21
6.45096e-22
-5.2537e-20
5.58141e-21
-2.4639e-22
1.01351e-19
7.4948e-21
-3.87553e-20
-1.73784e-20
-9.10758e-20
-1.0424e-19
-3.07319e-20
-5.04362e-21
-1.20156e-20
-1.99632e-20
-2.615e-20
2.04672e-21
1.80152e-20
-2.5095e-20
-1.61289e-20
-1.43118e-20
-4.40593e-20
-6.7911e-20
6.94384e-20
-4.35363e-21
1.83686e-21
1.93056e-20
5.08493e-21
-7.93575e-22
5.3176e-20
-2.56134e-19
-2.66643e-19
-1.59206e-20
3.85763e-20
-1.52486e-19
2.25834e-21
-1.00053e-20
-3.26007e-20
1.1636e-20
-3.37988e-20
1.39045e-21
-4.49765e-21
-5.92981e-20
1.59212e-20
-2.84656e-20
6.40909e-20
4.68709e-20
8.3918e-20
-1.23231e-19
-3.49693e-20
1.96611e-19
1.90474e-21
-4.17415e-20
2.41095e-20
2.37616e-20
-3.79489e-20
-6.64292e-20
2.70482e-20
-4.70315e-20
-2.06872e-20
3.88502e-20
5.02117e-20
2.19514e-20
1.29161e-20
-1.15205e-20
-4.55931e-20
2.66537e-20
-2.51892e-20
3.28537e-20
2.84256e-20
6.49901e-20
-1.01912e-19
1.64728e-19
4.67335e-20
-2.11761e-23
-7.22515e-20
6.78015e-20
-2.37525e-20
-6.60187e-20
-7.86764e-22
-8.62379e-20
-1.72383e-20
5.31694e-20
-1.90691e-20
-9.85159e-20
-1.49865e-20
-5.78126e-20
-5.5132e-20
-5.09232e-20
-5.30246e-20
-2.06977e-20
-1.05077e-19
-1.01994e-20
2.65465e-21
8.43525e-21
-2.90143e-21
-1.61503e-22
-2.88578e-20
-6.77847e-20
-3.47208e-20
-3.47129e-21
-2.34694e-20
-9.94661e-20
1.38544e-19
5.92073e-20
1.32752e-20
7.41398e-20
8.39149e-20
4.85576e-21
-6.66512e-20
-1.24194e-19
-1.2984e-20
1.13747e-20
1.79565e-19
5.26319e-20
4.12521e-21
-9.67274e-20
-6.19144e-20
-4.46517e-20
-1.14642e-19
-5.00657e-20
7.91261e-21
-1.55826e-20
-6.63207e-20
7.10655e-21
4.16374e-20
-1.22848e-20
-1.1655e-20
5.07337e-20
-6.62885e-20
-8.95544e-21
-6.45703e-23
-5.79383e-20
1.66132e-22
-2.74309e-20
-2.16486e-20
-4.72693e-20
-4.04978e-20
4.39778e-22
-1.90824e-20
3.96224e-21
1.57836e-20
1.40331e-20
5.4026e-21
1.00913e-21
-1.36534e-20
-7.66079e-21
-1.27026e-20
1.63715e-20
6.22033e-20
-5.434e-20
2.67471e-20
-2.47163e-20
-1.01192e-19
6.90986e-21
7.75248e-20
3.24836e-20
1.31705e-20
-7.34861e-21
-1.20235e-21
5.7461e-20
9.30434e-20
2.23492e-20
-3.37127e-20
-3.84901e-20
1.01972e-20
1.19132e-20
-9.78354e-21
-8.67978e-20
-3.08229e-20
9.22255e-21
1.90569e-20
6.6534e-20
1.45762e-20
-1.25177e-20
-4.07375e-20
-2.91096e-20
-2.5224e-20
8.72066e-20
1.97714e-20
4.23517e-20
-4.46131e-20
4.48926e-20
1.24541e-20
-1.67035e-20
-4.96265e-21
3.16361e-20
-9.25395e-21
8.97678e-22
4.13972e-20
5.73938e-20
8.89786e-21
1.45469e-20
-3.03669e-20
-2.97663e-20
-3.51417e-20
9.8423e-21
3.54612e-20
-1.00456e-20
1.77342e-20
-1.56744e-20
3.66649e-20
7.11346e-20
5.70349e-20
2.50599e-22
-1.53163e-20
-1.36476e-20
4.47657e-20
-6.82344e-20
8.3578e-20
5.89009e-20
2.4893e-20
-5.85e-20
-2.46735e-20
2.32819e-20
4.94994e-21
6.60798e-20
4.36705e-20
-9.78891e-21
2.17206e-20
3.83656e-20
-6.73994e-20
-2.35502e-21
2.35108e-20
-8.88633e-21
-2.47554e-21
2.22724e-20
-3.26556e-21
-1.0249e-20
6.38004e-21
1.69436e-20
-7.56961e-20
2.45554e-20
1.44407e-21
-2.03451e-20
-1.16436e-20
3.02261e-20
-0.000107965
-0.000111723
-3.24945e-05
2.74314e-05
3.68176e-05
2.24786e-05
6.69142e-06
-1.55654e-05
-2.80038e-05
-1.41191e-05
1.4641e-05
3.82015e-05
5.25613e-05
7.00015e-05
0.000108664
0.000145261
0.000168799
0.000192495
0.000216188
0.000148924
-4.33221e-05
-0.000141396
-9.18126e-05
-6.53085e-05
-8.98314e-05
-0.000102237
-8.39578e-05
-3.82777e-05
3.41593e-05
0.000106001
0.000143949
0.000128808
7.26333e-05
1.01915e-05
-2.28088e-05
7.35196e-07
5.23019e-05
7.06854e-05
4.09772e-05
-3.6301e-05
6.31779e-07
6.37023e-06
-4.69461e-06
-1.32695e-05
-1.55656e-05
-1.11507e-05
-3.76164e-06
1.25482e-05
4.47858e-06
-3.04727e-05
-5.80729e-05
-4.59072e-05
-1.10029e-05
2.23059e-05
1.98547e-05
5.24769e-06
-2.05109e-05
-5.37476e-05
-6.71719e-05
-5.66987e-06
2.61375e-05
-0.000102845
-0.000107321
4.17281e-05
0.000123529
0.000141701
0.00011346
6.84338e-05
2.46622e-05
-5.2031e-06
-2.23773e-05
-2.60553e-05
-2.85045e-05
-3.29378e-05
-6.58277e-05
-0.000119142
-9.33621e-05
-3.68103e-05
-2.46864e-05
-2.49251e-05
0.000205021
0.000201464
6.04422e-05
-4.22841e-05
-5.96373e-05
-3.54941e-05
-4.46327e-06
4.75626e-05
0.000100039
8.77218e-05
4.61746e-06
-8.69397e-05
-0.000161529
-0.000248757
-0.0004
-0.000564314
-0.000678614
-0.00078727
-0.000913396
-0.00070964
8.19918e-05
0.000570638
0.000360705
0.000176223
0.000219531
0.00027964
0.000249638
9.98704e-05
-0.000162365
-0.000428071
-0.000567593
-0.000530005
-0.000345748
-0.000112189
6.21287e-05
3.04284e-05
-0.000179428
-0.000211717
-4.2796e-05
0.000119584
7.11029e-05
8.29637e-05
3.8084e-05
-1.05127e-05
-2.27021e-05
-1.78887e-05
-1.14376e-05
-5.55009e-06
1.37428e-05
3.24919e-05
3.28704e-05
-3.67361e-06
-4.57862e-05
-8.26154e-05
-0.000113509
-0.000131162
-0.000126485
-0.000119102
-0.000133684
-0.000112671
5.55521e-05
0.00026016
0.000223132
4.42969e-05
-1.92239e-06
7.31039e-06
1.7972e-05
-9.12394e-07
-5.71858e-05
-0.000117267
-0.000145053
-0.000119407
-4.53604e-05
4.16711e-05
0.000112507
0.000139042
6.65222e-05
-4.07858e-05
-4.20761e-05
4.09682e-05
9.62852e-06
9.68419e-06
7.96123e-06
2.89973e-07
-3.95649e-06
-4.27467e-06
-3.46527e-06
-3.64796e-06
-2.41483e-06
1.20884e-06
4.86667e-06
1.69284e-06
-5.68555e-06
-1.16364e-05
-1.38954e-05
-1.27149e-05
-9.11432e-06
-6.47064e-06
-7.58539e-06
-7.09084e-06
1.46082e-05
5.26934e-05
4.59278e-05
1.46245e-05
-3.0889e-06
-6.3336e-06
-1.82126e-06
-1.57911e-06
-8.11751e-06
-1.3681e-05
-1.50497e-05
-1.19175e-05
-1.4029e-06
1.30879e-05
2.39882e-05
2.71071e-05
1.88578e-05
6.18403e-07
-1.28422e-05
1.43218e-06
2.09413e-06
-1.95989e-06
-6.05549e-07
1.81687e-06
1.34403e-06
6.06088e-07
4.70694e-07
3.62197e-07
-2.04226e-07
-4.5297e-07
-5.54021e-07
-1.20194e-07
1.50331e-06
2.78878e-06
2.89924e-06
2.04552e-06
7.18629e-07
4.86298e-07
6.90934e-07
-1.94099e-06
-2.21979e-07
1.15096e-05
6.95153e-06
3.32492e-07
2.97597e-07
-1.5867e-06
-1.16146e-06
-2.80346e-07
-3.98631e-07
-8.64404e-08
5.22092e-07
-3.38781e-08
-4.42868e-07
6.08981e-07
1.8313e-06
1.96653e-06
7.65672e-07
1.0503e-06
-6.64924e-07
-3.13297e-06
3.69426e-07
-2.37516e-06
-2.57565e-06
-1.52467e-07
1.04168e-06
9.16915e-07
7.35027e-07
7.93975e-07
7.02566e-07
6.13755e-08
-6.26966e-07
-9.74413e-07
6.41025e-07
2.78769e-06
3.27322e-06
2.00789e-06
7.45189e-07
2.5026e-07
8.33935e-07
6.75378e-07
-6.93532e-07
3.69325e-06
2.97059e-06
-3.27975e-06
-8.89908e-07
3.50029e-07
-1.64593e-07
-2.26731e-07
-1.83974e-07
8.70152e-08
3.09896e-07
2.04327e-07
-1.40984e-08
1.00135e-07
2.84361e-07
8.56146e-08
-8.68243e-07
-9.51606e-07
7.5408e-07
-1.97598e-06
-7.09771e-07
-1.01152e-06
-1.63599e-06
-6.83683e-07
1.99422e-07
4.39978e-07
3.96388e-07
3.30242e-07
4.14829e-07
2.86479e-07
3.04421e-08
-1.72101e-07
1.05357e-07
7.17761e-07
6.8726e-07
2.55293e-07
1.55773e-07
6.13268e-08
-1.57611e-08
6.31486e-07
-1.19313e-07
1.13126e-06
2.12956e-06
-1.26878e-06
-9.31843e-07
3.80453e-07
2.3407e-07
2.81089e-08
-6.54815e-09
5.48906e-08
6.23882e-08
1.5675e-08
-1.17918e-08
6.88459e-08
1.62259e-07
1.88349e-07
-7.26105e-08
-6.31234e-07
-1.79805e-07
-5.20208e-07
-5.11525e-07
-1.20372e-07
-6.4443e-07
-3.71005e-07
-7.78012e-08
3.58293e-08
3.92781e-08
-1.80112e-08
4.90758e-08
1.76484e-07
1.87054e-07
1.37438e-07
1.30369e-07
5.6353e-08
-1.74523e-07
-1.87162e-07
-2.48674e-08
6.58017e-08
-3.97122e-08
1.68451e-07
-6.13512e-08
2.59167e-07
9.09216e-07
-2.8366e-07
-4.31537e-07
1.37208e-07
2.09815e-07
9.17497e-08
3.09551e-08
1.67757e-08
1.49384e-08
8.73188e-09
6.92022e-09