/*--------------------------------*- C++ -*----------------------------------*\
| =========                 |                                                 |
| \\      /  F ield         | OpenFOAM: The Open Source CFD Toolbox           |
|  \\    /   O peration     | Version:  5.0                                   |
|   \\  /    A nd           | Web:      www.OpenFOAM.org                      |
|    \\/     M anipulation  |                                                 |
\*---------------------------------------------------------------------------*/
FoamFile
{
    version     2.0;
    format      ascii;
    class       volScalarField;
    location    "50.4676134421789371";
    object      MDv2;
}
// * * * * * * * * * * * * * * * * * * * * * * * * * * * * * * * * * * * * * //

dimensions      [0 1 -2 1 0 0 0];

internalField   nonuniform List<scalar> 
60000
(
-1.4062e-05
-5.59815e-05
-8.60723e-05
-7.05818e-05
-4.03587e-05
-9.11687e-07
2.10015e-05
2.01323e-05
5.92665e-06
3.21299e-05
2.40349e-05
-2.79847e-06
-2.69744e-05
-7.56412e-05
-0.000118954
-0.000153049
-8.55757e-05
3.23023e-05
0.000208884
0.000314322
0.000357703
0.000201179
-2.84608e-05
-0.000157912
-6.25279e-05
-4.30629e-06
-0.000109383
-0.000260045
-0.000262337
-0.000173202
-0.00014818
-0.000216173
-0.000257782
-0.000221805
-8.97192e-05
5.95758e-05
-6.49872e-05
-7.00906e-05
-2.8204e-05
5.77034e-06
0.000557891
0.0006001
0.0003005
-5.40686e-05
-0.000215302
-0.000125962
-1.82148e-05
3.1996e-05
-3.20501e-05
5.65921e-05
0.000259226
0.000428716
0.000288159
2.73396e-05
-8.52874e-05
-0.000192064
-0.000447025
-0.000644463
-0.000386192
0.000237347
0.000610427
0.00057887
0.000189258
-0.000688044
-0.00182257
-0.00241777
-0.0018317
-0.000505094
0.000520085
0.00065869
0.000287544
0.000102314
0.000262063
0.000491082
0.000577478
0.000228096
-8.3759e-05
-0.000167031
-5.40477e-06
0.000281169
7.58535e-05
0.000133449
6.68333e-05
-1.68258e-05
-4.92635e-05
-4.52651e-05
-2.32685e-05
7.8014e-06
-2.97782e-06
-1.85091e-05
2.13145e-05
9.94999e-05
0.00011684
3.02761e-05
-6.09452e-05
-0.000117985
-0.000162759
-0.000178347
-4.87943e-05
0.000222688
0.000418477
0.000363785
7.41991e-05
-0.000351085
-0.000665216
-0.00070576
-0.000457572
-3.99787e-05
0.000322316
0.000387003
0.000199619
-4.26201e-06
-6.55721e-05
-2.42491e-06
0.000102797
0.0001445
2.37445e-05
-0.000115951
-0.00013603
-5.43083e-05
-0.000214455
-0.000219287
-9.21823e-05
6.01587e-05
0.000143171
7.89524e-05
1.20006e-06
-2.61292e-05
1.47493e-05
-3.0782e-05
-9.19476e-05
-0.000141901
-9.67998e-05
1.72414e-05
8.39717e-05
0.000151979
0.000240856
0.000286017
9.50341e-05
-0.000218924
-0.000363031
-0.000253517
-5.38807e-05
0.000241246
0.000596452
0.00080315
0.000638095
0.000262417
-3.1596e-05
-0.00011724
-1.74768e-05
6.98885e-05
-5.02043e-06
-0.000118584
-0.000181379
-0.000102908
7.65353e-05
0.000131027
2.90388e-05
-0.00011301
-9.70736e-05
-0.000122948
-5.89432e-05
2.5868e-05
6.58658e-05
4.91071e-05
1.56937e-05
-1.18102e-05
2.30822e-06
-5.69107e-07
-3.18674e-05
-6.24762e-05
-6.20434e-05
-1.30218e-05
4.57332e-05
8.93964e-05
0.000127629
0.000134558
3.73172e-05
-0.00013885
-0.000255507
-0.000201229
-3.61655e-05
0.000182583
0.000341189
0.000341744
0.000206715
2.20762e-05
-0.000109976
-0.000135154
-8.27911e-05
-1.50759e-06
2.01832e-05
-3.21629e-05
-9.13828e-05
-7.79957e-05
1.56229e-06
7.81676e-05
6.90175e-05
-1.23372e-05
-1.52486e-05
-2.73606e-05
-1.78581e-05
1.16778e-06
9.30926e-06
7.77038e-06
4.10684e-06
-6.25331e-07
1.65468e-07
1.98401e-06
-4.42451e-06
-1.10727e-05
-1.31762e-05
-9.56602e-06
4.73159e-06
2.06431e-05
3.17754e-05
2.79877e-05
4.22143e-06
-1.40407e-05
-3.46091e-05
-5.86124e-05
-1.85514e-05
5.55996e-05
7.27205e-05
4.13419e-05
2.16211e-05
1.54029e-06
-2.8226e-05
-3.17448e-05
-1.84463e-05
-7.64296e-06
-9.42119e-07
-4.34032e-06
-1.9198e-05
-2.25547e-05
-5.51665e-06
1.23015e-05
2.06127e-05
7.54872e-06
-1.94659e-07
-1.30497e-06
-7.08552e-07
-4.05815e-07
-7.7933e-07
-8.71302e-07
-3.86576e-07
6.47173e-08
1.58136e-07
4.97619e-07
-3.4218e-07
-1.0214e-06
5.66486e-07
-2.47419e-07
-1.9801e-06
-1.18485e-06
5.13143e-06
1.12381e-05
2.23062e-06
2.65662e-06
2.08114e-05
-2.68682e-06
-8.87299e-06
9.34495e-06
3.67665e-06
-3.51289e-06
-3.98849e-06
1.71984e-08
-6.38932e-06
-1.25377e-05
-5.10472e-06
1.33624e-07
-2.94692e-07
-2.10494e-06
-3.08813e-06
-4.30468e-06
-1.54648e-06
2.34773e-07
1.39023e-06
2.79336e-06
8.80052e-08
7.47589e-07
1.54253e-06
4.75034e-07
-6.42716e-07
-8.64898e-07
-5.25993e-07
-2.29253e-07
-5.91629e-08
-4.98032e-08
4.83932e-08
-9.85178e-08
1.38545e-06
2.48551e-06
-3.10706e-07
-5.60244e-06
-5.11288e-06
4.63984e-06
1.89236e-06
-1.32354e-06
1.30386e-05
4.86899e-06
-3.32919e-06
-2.4523e-06
-9.24836e-06
-6.01005e-06
-1.61372e-06
-6.74824e-07
4.03743e-08
-4.26416e-06
-4.36091e-06
-4.68977e-07
1.18739e-06
1.06844e-06
2.77789e-07
-5.32638e-07
-2.85315e-07
-2.91798e-07
-1.58574e-06
-9.28948e-07
-2.58753e-07
1.30644e-07
5.36181e-07
2.27096e-07
-1.89579e-07
-2.55003e-07
-8.76998e-08
-4.41023e-08
-4.99785e-08
-5.15664e-08
6.97163e-08
5.13545e-08
3.9803e-07
1.14578e-06
3.62223e-07
-3.03892e-06
-5.19932e-06
-3.16303e-07
1.13234e-06
-4.38715e-06
-6.17529e-07
6.37771e-07
4.76452e-07
-3.53223e-06
-6.07123e-06
-2.83258e-06
-2.10769e-08
-5.53317e-10
3.79069e-07
9.91105e-09
-1.15141e-06
-8.94423e-07
8.25232e-08
7.62118e-07
8.35653e-07
2.9082e-07
-5.19012e-08
-6.91617e-08
-5.28454e-07
-7.04901e-07
-1.28008e-07
-2.89783e-08
8.31718e-08
1.82765e-08
-6.14015e-08
-6.68512e-08
-1.64878e-08
1.56415e-08
5.63349e-09
3.75386e-10
2.4209e-08
-5.67582e-09
2.10654e-08
3.73129e-07
1.419e-07
-6.5468e-07
-1.64618e-06
-1.5244e-06
2.25876e-07
-3.44876e-06
-5.43542e-06
-2.13456e-07
1.78633e-06
-2.56153e-06
-2.45548e-06
-9.5577e-07
-2.79884e-07
1.10329e-08
-3.31897e-08
1.10945e-07
4.27297e-09
-1.42033e-07
-1.76145e-07
1.21917e-08
2.2152e-07
2.03004e-07
4.7225e-08
-5.61278e-09
-6.47721e-08
-1.44312e-07
-2.24769e-08
-1.79547e-08
-2.79983e-09
-1.82739e-08
-2.46575e-08
-9.08135e-09
-4.65052e-09
2.48483e-09
2.93822e-09
2.41202e-09
-1.26022e-08
-7.6728e-08
-7.10847e-08
1.77343e-07
1.54427e-08
-8.36324e-08
-8.52901e-08
-7.4623e-07
-1.34056e-07
-1.29347e-06
-4.13425e-06
-1.7258e-07
1.25709e-06
-1.73456e-06
-1.14294e-06
-3.13023e-07
-3.67134e-08
-6.3879e-09
-1.08935e-08
-6.0688e-09
9.55026e-09
1.88658e-09
-1.48878e-08
-3.98011e-08
-3.64536e-09
3.85938e-08
3.11569e-08
8.58607e-09
-8.22596e-10
-1.27297e-08
-2.23588e-09
-3.9403e-09
-6.13947e-09
-8.93888e-09
-1.2595e-08
-1.60278e-09
-1.4378e-09
3.01074e-11
1.04084e-10
5.07446e-10
-7.13164e-09
-3.49641e-08
-4.21042e-08
3.92891e-08
-1.97698e-08
-3.83012e-08
1.20339e-07
-1.35481e-07
-1.32369e-07
-2.51536e-07
-1.72879e-06
-2.21598e-07
6.60262e-07
-8.89327e-07
-5.28145e-07
-1.0066e-07
-1.70437e-08
-7.14096e-10
4.0959e-09
-4.16077e-10
-1.24195e-10
-8.68754e-11
5.0443e-10
-1.41565e-09
-7.18601e-09
-5.81662e-10
6.20263e-09
4.09674e-09
1.95039e-09
-4.34002e-11
-1.32464e-11
2.28388e-12
-1.17963e-09
-1.24224e-09
-3.49059e-10
-1.02584e-10
3.25409e-11
-2.43088e-11
7.26594e-12
1.07746e-10
-1.03189e-09
-1.27411e-08
-1.14311e-08
9.70617e-09
-1.36354e-08
-2.95666e-08
2.59716e-08
2.7011e-08
-5.02184e-08
-1.18922e-08
-4.75947e-07
-1.5457e-07
2.83994e-07
-2.73329e-07
-1.40074e-07
-2.42438e-08
-7.63209e-09
2.35155e-11
3.25663e-12
1.26615e-11
1.04993e-11
1.54059e-11
-7.24172e-13
3.61165e-11
-3.29096e-11
3.10392e-12
8.41577e-12
1.73047e-10
1.06053e-10
-1.11401e-10
6.6053e-11
8.14844e-11
-9.57304e-11
-4.30494e-11
-4.62692e-12
-4.05441e-13
-2.60512e-13
-7.33334e-15
-1.94152e-12
4.04717e-11
2.20552e-11
-7.55927e-09
-1.56658e-09
7.06877e-09
-2.62589e-09
-9.51784e-09
-1.5404e-09
5.94374e-09
-9.65399e-09
1.46783e-09
-8.51344e-08
-7.13558e-08
7.64667e-08
-4.19141e-08
-3.22034e-08
-1.06716e-08
-9.99695e-11
1.13893e-13
-5.22223e-15
8.1261e-15
-1.11882e-13
-1.25823e-13
2.40172e-14
-1.32171e-13
9.45438e-14
1.54266e-13
-4.42824e-13
4.66746e-12
7.99008e-13
1.68498e-12
3.68791e-13
1.2433e-12
-7.90606e-13
-4.83443e-13
-4.1504e-14
-2.32711e-15
-1.85049e-16
4.67117e-15
-7.04229e-14
-9.55448e-13
1.36735e-10
-4.6438e-10
-7.2889e-10
7.62833e-10
-9.56496e-11
-7.46419e-11
3.83252e-10
5.02159e-10
-3.3639e-10
-1.81035e-09
-8.56364e-09
-1.68214e-08
1.24837e-08
-3.09863e-09
-7.41442e-09
-2.43488e-10
-3.76115e-12
2.02827e-14
1.65944e-15
-3.90067e-16
4.30217e-16
5.3421e-16
-1.07102e-16
3.4288e-16
-1.68925e-16
-3.91467e-16
-1.16024e-15
4.14098e-15
1.53958e-15
-4.92025e-14
3.01693e-16
8.08618e-15
-3.08079e-15
-3.4801e-15
-3.25901e-16
-1.5583e-17
3.09944e-18
-4.51693e-17
7.14824e-16
-3.74539e-15
8.49464e-14
-1.29776e-11
9.92075e-11
8.07856e-11
1.20334e-12
-5.44488e-13
6.35988e-14
1.40619e-11
4.05036e-11
-2.78416e-12
5.40369e-11
-4.96667e-11
3.16876e-10
-5.9144e-12
-2.34279e-11
-8.85691e-13
-5.06012e-15
1.67987e-16
6.7814e-18
2.34282e-18
-4.29206e-19
-1.53536e-18
2.15734e-19
-6.98607e-19
3.31102e-19
1.89465e-18
-1.16376e-18
-9.53167e-19
-3.15492e-17
-2.07908e-16
-4.49953e-18
3.13592e-17
1.21311e-17
-1.68039e-17
-2.50289e-18
-3.70644e-19
-9.92053e-20
6.51032e-20
-7.80629e-19
1.38696e-17
3.97928e-17
-2.4897e-14
5.09e-13
9.09621e-13
3.71655e-14
-8.60703e-15
-1.61761e-15
1.27917e-14
-1.47664e-13
-4.29941e-14
-3.27082e-13
-1.68583e-14
8.19499e-13
1.06348e-13
-8.07301e-14
-6.11625e-15
-2.24745e-16
-5.55115e-18
-4.61047e-21
-8.49507e-21
2.38784e-19
-5.93026e-20
-1.00271e-19
-2.02673e-19
-1.36843e-19
4.57298e-19
6.30404e-19
-1.39077e-19
-3.3764e-19
-2.31019e-19
2.36169e-20
-4.80337e-20
3.5953e-20
-1.13074e-19
-1.16012e-19
-3.40503e-19
2.22339e-19
-7.41691e-20
3.01745e-20
4.15097e-20
6.54681e-20
-3.5618e-17
1.39589e-15
6.36427e-15
2.90876e-16
-1.31817e-16
-1.31592e-17
-2.66694e-17
3.36128e-16
4.36869e-16
1.16678e-15
-1.45528e-16
2.19733e-15
-2.74265e-17
-4.28583e-16
-3.44398e-17
-1.64306e-18
1.71616e-20
-1.38408e-19
-3.39534e-19
2.16349e-19
7.56916e-20
-1.62375e-20
-8.33766e-20
-2.54233e-20
4.06559e-20
2.68537e-19
-1.62319e-19
-2.31208e-20
5.69124e-20
3.43803e-21
2.88631e-20
-5.95813e-20
-3.12638e-19
-2.16593e-19
8.62326e-20
1.55243e-19
-7.08048e-20
-4.5051e-20
-2.26023e-19
3.19416e-19
1.12856e-19
1.65263e-18
2.37634e-17
-1.23336e-18
-9.01057e-19
3.09485e-19
2.84197e-20
-3.20504e-19
-1.76273e-18
-1.69601e-18
-2.10453e-19
3.89241e-18
-4.94048e-18
-3.58572e-18
-1.89113e-19
-3.32816e-19
9.92826e-20
-2.26519e-19
-3.47344e-19
-2.10795e-19
-1.31527e-19
-6.72972e-20
5.91487e-19
5.30025e-19
-2.9506e-19
3.61319e-19
1.5968e-19
-1.2298e-19
7.07305e-20
3.06935e-20
-8.5025e-21
2.92971e-20
3.07612e-20
-6.44592e-20
-2.44368e-19
-4.82579e-19
1.66692e-19
-2.04127e-19
-1.87462e-19
6.76058e-19
-4.57324e-19
2.07173e-19
8.15972e-20
-3.97116e-19
3.70329e-19
-8.61011e-20
-2.70245e-21
3.88028e-22
1.60839e-20
-1.61131e-20
2.43441e-20
1.09324e-19
-2.04577e-20
-1.54859e-19
1.52407e-19
1.67681e-19
-9.22269e-20
3.42374e-19
2.9944e-19
-2.1056e-19
-8.72561e-20
5.40123e-20
-5.26016e-19
-3.87172e-19
1.87577e-19
-1.08807e-19
1.57591e-19
6.8198e-20
1.10357e-20
5.55422e-20
-1.60787e-19
2.52981e-20
1.24308e-19
-1.21372e-19
-4.97114e-19
9.49482e-20
5.40175e-20
3.3407e-19
4.80679e-19
-5.32143e-19
-1.3245e-19
-6.36071e-20
-1.04126e-20
1.08646e-19
-7.40821e-20
2.70351e-20
-9.26638e-20
-9.99947e-20
1.58534e-19
-6.9458e-20
-1.51554e-19
2.48374e-19
-3.79004e-20
7.68346e-20
1.21848e-19
6.23657e-20
8.03734e-20
2.44111e-19
6.4317e-19
7.4352e-21
-1.06251e-20
5.25378e-20
-5.32322e-20
-6.60471e-19
-6.95667e-20
-9.3602e-20
1.10501e-19
1.62063e-21
-4.22108e-22
1.60166e-20
-9.0168e-20
-6.34126e-20
7.77457e-20
1.39502e-20
1.03892e-19
2.51477e-19
3.33863e-20
7.82108e-20
-4.04724e-19
-6.11587e-19
4.19959e-20
-6.96896e-20
5.29498e-20
-1.08538e-19
-2.5343e-21
5.50338e-21
4.64627e-21
-3.60044e-20
8.25227e-20
-5.23033e-20
-4.50567e-20
3.03351e-20
7.75244e-20
-7.37764e-20
-2.30794e-19
-8.77976e-20
2.74595e-19
-8.34351e-20
-1.09293e-19
6.87422e-20
7.69999e-20
7.78509e-20
-6.4611e-20
-3.43068e-19
-5.42312e-20
-6.18853e-20
3.79518e-21
-1.48119e-19
-1.767e-19
-4.66907e-20
9.69635e-20
4.23585e-20
2.11395e-20
-2.12923e-20
2.67159e-19
2.51315e-20
2.34929e-22
-2.17156e-19
-3.157e-19
4.52981e-19
4.60983e-20
-8.60618e-20
-1.43785e-20
-9.83492e-21
7.53197e-20
-1.22611e-21
2.34432e-20
1.03953e-19
5.35077e-20
-1.68632e-20
-5.29568e-21
-1.22958e-19
2.20572e-20
1.03741e-19
-1.69804e-19
-2.32515e-19
-8.57553e-20
-4.45602e-20
-2.78438e-20
1.23136e-19
3.28185e-20
2.07308e-19
9.84992e-20
9.72691e-20
-3.95233e-20
6.17826e-20
-4.94339e-20
8.24974e-20
1.47106e-19
1.92317e-20
-7.33535e-20
-8.24907e-21
-1.23781e-19
-2.41291e-19
-2.16144e-19
2.53205e-19
-5.5871e-20
3.35893e-20
2.55825e-19
7.13228e-20
-4.30658e-20
-9.00124e-20
4.37354e-21
1.47718e-20
-4.63871e-20
1.10159e-21
3.49644e-20
1.42809e-20
2.85631e-20
7.88253e-21
-2.7857e-20
2.04819e-20
-4.32867e-20
-4.15562e-20
-1.4614e-19
-3.26924e-19
2.00558e-20
2.9596e-20
4.98755e-20
-4.03933e-21
-6.78981e-20
4.1107e-20
4.34161e-19
1.38943e-19
6.14213e-22
2.35629e-20
-4.33655e-20
-5.96964e-20
3.1216e-20
3.6828e-20
-1.17702e-20
-1.80323e-20
-1.89649e-20
7.55229e-20
-1.48581e-19
-1.32617e-19
4.69647e-20
-6.29328e-20
-5.5458e-19
-8.88959e-20
1.30362e-19
-6.22175e-20
-1.0088e-19
-4.7602e-20
1.10676e-19
-8.05612e-21
-8.15615e-20
-3.75809e-20
-6.09037e-20
-1.80976e-20
2.30612e-19
1.29761e-19
-2.93879e-20
6.29636e-20
7.80575e-20
-4.23356e-20
9.606e-20
7.09465e-20
7.74824e-21
-3.18035e-20
1.29829e-19
1.02702e-19
3.25294e-19
-2.56742e-19
-4.46465e-20
-5.32377e-20
-9.49818e-20
-8.66037e-20
6.18403e-20
5.08297e-05
5.51991e-07
-5.68034e-05
-7.92441e-05
-9.66562e-05
-0.000102949
-2.84801e-05
6.30307e-05
0.00012178
0.000105248
6.95584e-05
1.99273e-05
-2.44538e-05
-0.000100477
-0.000198237
-0.000288814
-0.00034985
-0.000374084
-0.000294269
-5.77317e-05
0.000192917
0.000207436
5.37066e-05
-0.000183258
-0.000335667
-0.000426339
-0.000426598
-0.000399884
-0.000279009
-0.000142028
-8.41424e-05
-0.00010643
-0.000164165
-0.000203188
-2.95029e-05
0.000152747
3.0406e-06
1.17654e-06
4.5336e-05
6.09078e-05
0.000183162
0.000244554
0.000175026
-2.5604e-05
-0.000219792
-0.000321958
-0.000308461
-0.000225563
-6.38323e-05
1.12617e-05
2.73997e-05
-0.000117485
-0.000354327
-0.00054696
-0.000751123
-0.00103937
-0.00130124
-0.00133835
-0.000959048
-0.000191665
0.000403745
0.000451519
0.000236534
0.000167191
-7.78287e-05
-0.000161984
0.000133668
0.000479138
0.000306025
-0.000299552
-0.000838184
-0.000920265
-0.000597458
-2.46317e-05
0.000350394
0.000150678
-0.000153986
-9.55608e-05
6.04467e-05
0.000116128
5.15667e-05
5.82183e-05
2.19004e-05
-3.37073e-05
-7.58172e-05
-0.000105532
-8.05179e-05
-1.51731e-06
8.52327e-05
0.000116739
9.65507e-05
4.53217e-05
-3.53857e-05
-0.000117678
-0.000194518
-0.000270011
-0.000332439
-0.000363551
-0.000272087
5.92573e-05
0.000443917
0.000494749
0.000246716
-2.06397e-06
-0.000220128
-0.00029958
-0.000152999
5.43196e-05
7.78699e-05
-8.83589e-05
-0.000266856
-0.000314183
-0.000207068
-9.72223e-06
0.00020641
0.00032103
0.000207051
5.271e-06
-1.97643e-05
1.58884e-05
-0.000108215
-0.000109776
-5.41736e-05
4.6969e-05
0.000142489
0.000181413
0.000132715
6.20616e-05
-2.78574e-05
-5.12697e-05
-4.41394e-05
3.20518e-05
0.00013435
0.000229053
0.000336816
0.000480234
0.000613033
0.000641327
0.000467045
0.000127311
-0.000160923
-0.000208852
-8.31104e-05
-3.6664e-06
9.67783e-05
0.000148867
7.038e-05
-3.07204e-05
2.14506e-06
0.000182985
0.000377237
0.000412298
0.000300697
0.000100796
-8.32288e-05
-0.000104832
6.52211e-05
5.67442e-05
-7.16133e-05
-9.52249e-05
-5.83196e-05
-6.28344e-05
-3.09731e-05
2.78152e-05
7.37505e-05
9.45741e-05
6.93121e-05
1.66965e-05
-3.45855e-05
-5.78357e-05
-4.95161e-05
-8.6645e-06
4.96106e-05
0.000103781
0.000154265
0.00020358
0.000237291
0.000239422
0.000159129
-2.51389e-05
-0.000185775
-0.000233428
-0.000129647
-4.16496e-06
9.43979e-05
0.000113976
4.40722e-05
-3.0607e-05
-3.04647e-05
4.3782e-05
0.000139668
0.000172527
0.000113709
6.15286e-07
-0.000111671
-0.000137853
-6.05926e-05
2.06121e-05
-1.38192e-06
-3.75395e-05
-9.99606e-06
-1.41536e-05
-9.94532e-06
4.84326e-06
1.39751e-05
1.64032e-05
1.42153e-05
3.32221e-06
-6.34013e-06
-1.1935e-05
-1.47785e-05
-8.90034e-06
4.88489e-06
1.96091e-05
3.07907e-05
3.49225e-05
3.06723e-05
3.06256e-05
2.90515e-05
-1.01286e-05
-3.92228e-05
-4.05457e-05
-4.18685e-05
-6.89268e-06
2.99229e-05
3.0564e-05
1.04945e-05
-5.56082e-06
-8.25134e-06
1.51024e-06
1.42917e-05
2.16018e-05
1.48731e-05
-4.68436e-06
-3.00292e-05
-3.64082e-05
-2.06002e-05
-2.00126e-06
7.63113e-06
-1.38121e-06
8.2552e-07
1.11233e-06
-9.57909e-07
-8.9663e-07
-8.02539e-07
-1.18394e-06
6.77223e-07
1.15551e-06
-1.22161e-06
7.53312e-07
-2.29779e-07
-2.78209e-06
-2.03321e-06
-6.46623e-07
6.66024e-07
8.22466e-07
-2.28167e-06
-4.02948e-06
3.22727e-06
-1.18115e-06
-1.3994e-05
5.09443e-06
-3.4947e-08
-3.42449e-06
3.3846e-06
2.99071e-06
1.978e-06
-7.61134e-07
-3.02603e-06
-7.48606e-07
1.72674e-07
-5.22998e-08
1.45325e-07
-4.02887e-07
-4.53679e-06
-6.89246e-06
-7.45675e-07
-6.69094e-07
2.83861e-07
2.09994e-06
9.87642e-07
2.9676e-06
2.24941e-06
-6.13895e-07
-2.15217e-06
-2.2382e-06
-9.8353e-07
3.10221e-07
-7.60844e-07
2.39483e-07
3.18161e-06
1.42287e-06
-7.41601e-07
-2.301e-06
-3.47525e-06
-2.76201e-06
-1.75666e-06
-3.02261e-06
-1.87796e-06
-2.63912e-07
-9.45314e-06
-6.78585e-07
4.93472e-06
-3.70336e-07
-2.40186e-06
-2.92494e-06
-7.87212e-07
2.71148e-08
-9.00657e-07
-4.64889e-07
9.24197e-09
-3.84126e-07
-3.19024e-08
8.03764e-07
3.16152e-07
-2.05931e-06
-1.90207e-07
1.22754e-06
-1.50873e-06
-3.53061e-07
2.75859e-08
1.42631e-06
1.93582e-06
1.35807e-08
-1.24364e-06
-1.06048e-06
-4.89943e-07
-6.70341e-09
-4.46005e-07
-7.75366e-07
1.35724e-06
2.00757e-06
3.54392e-07
-1.1058e-06
-2.13254e-06
-1.53743e-06
-1.98548e-07
-3.48852e-07
-1.32537e-06
-3.74089e-07
-3.95255e-06
-5.27859e-06
5.1216e-07
4.45574e-07
-1.72996e-06
-2.01338e-06
-4.4564e-07
3.22309e-08
-8.91925e-08
-5.37168e-08
1.00905e-07
3.69239e-08
-4.10168e-08
2.0515e-07
6.52492e-07
-4.15136e-07
-9.76134e-07
5.08238e-07
-3.07915e-07
-1.10393e-06
-2.2409e-07
3.71219e-07
8.46146e-07
1.04766e-07
-5.61838e-07
-4.48903e-07
-2.25002e-07
-1.48517e-08
-2.39557e-07
-5.46936e-07
-2.98561e-08
9.06385e-07
4.48112e-07
-4.30825e-07
-9.63789e-07
-6.86037e-07
-3.37973e-08
1.86406e-07
-4.16517e-07
-2.31456e-07
-1.16689e-06
-4.38809e-06
-1.07075e-06
3.92805e-07
-8.89886e-07
-8.26957e-07
-1.5296e-07
8.75434e-09
-1.28431e-08
-9.78661e-09
4.27008e-09
1.66527e-09
-7.9659e-09
-1.19761e-07
1.96362e-07
8.9856e-08
-4.08153e-07
-9.82646e-08
8.69526e-08
-3.77108e-07
-6.95647e-08
5.80069e-08
2.3657e-07
-1.5593e-08
-2.6084e-07
-1.80328e-07
-8.03752e-08
9.02459e-09
-6.01806e-08
-2.47541e-07
-1.87075e-07
2.00293e-07
1.86397e-07
-1.89652e-07
-4.25443e-07
-3.39699e-07
-7.35827e-08
2.22469e-07
-3.45947e-08
-5.20793e-08
-3.4959e-07
-2.48186e-06
-7.15539e-07
2.31754e-07
-5.19983e-07
-2.80244e-07
-4.5323e-08
-1.53636e-08
-3.38167e-09
-1.39379e-09
-3.33994e-10
-3.44841e-09
1.74404e-10
-2.53582e-08
-3.10903e-09
6.88759e-08
-7.42625e-08
-8.978e-08
2.39306e-08
-3.00875e-08
2.08752e-09
2.79885e-09
2.70511e-08
-6.41926e-08
-1.10824e-07
-4.39191e-08
-6.65274e-09
2.58321e-09
9.13021e-09
-8.68354e-08
-9.53689e-08
3.91977e-08
6.11606e-08
-5.36597e-08
-9.96815e-08
-1.04968e-07
-6.30349e-08
9.14931e-08
2.3387e-08
1.0736e-08
-5.0258e-08
-1.04583e-06
-2.94807e-07
1.24178e-07
-2.31602e-07
-9.68641e-08
-3.50066e-08
-1.00397e-08
-5.60696e-10
-1.00734e-11
1.95459e-10
4.49717e-10
2.09469e-11
4.08063e-10
-8.52932e-09
1.1799e-08
-8.14039e-10
-2.33153e-08
-4.11e-09
5.557e-09
4.74293e-09
4.5454e-09
-8.43103e-09
-3.31085e-08
-2.67522e-08
-5.08686e-09
-2.96704e-10
-3.41825e-11
6.37529e-09
-1.73057e-08
-3.41335e-08
3.162e-09
2.19607e-08
-1.02161e-08
-2.15611e-08
-1.94421e-08
-2.462e-08
1.38504e-09
1.63452e-08
9.84016e-09
1.5889e-08
-3.01515e-07
-1.00583e-07
5.19635e-08
-6.81795e-08
-4.31946e-08
-1.41303e-08
-5.03323e-10
-2.15142e-11
-2.61997e-12
-4.07742e-12
3.51295e-11
8.61063e-12
1.77026e-10
-1.05076e-09
1.77327e-10
4.92669e-09
-1.09278e-09
-2.69742e-09
-4.46999e-11
2.65304e-10
5.88997e-09
-5.56993e-09
-5.14095e-09
-2.00687e-09
-2.92666e-10
-1.38846e-11
-4.91005e-11
1.12542e-10
-2.19998e-10
-9.59153e-09
-1.01843e-09
3.1663e-09
-1.61106e-09
-7.37678e-09
-6.15058e-10
-2.05107e-09
-1.12497e-09
1.20225e-08
1.70386e-09
4.4549e-09
-6.91126e-08
-2.1349e-08
1.09364e-08
-2.0743e-08
-1.1603e-08
-6.2068e-10
-1.37568e-11
-2.84886e-13
-7.31318e-15
4.62733e-14
-3.02173e-13
-2.68474e-13
-1.40138e-12
9.81055e-12
-4.66612e-11
-3.54347e-12
-1.11339e-11
-5.85431e-11
-3.90682e-10
1.67688e-10
2.20017e-10
-2.00052e-10
-1.71257e-10
-1.46852e-11
-9.23087e-13
-1.30079e-13
4.65231e-13
-2.62308e-12
7.35066e-12
-5.49603e-12
3.05662e-10
6.50194e-10
5.51828e-12
-5.66651e-11
-3.32358e-11
7.8029e-12
-8.89832e-11
1.34667e-11
2.31815e-11
-2.52022e-10
-1.59606e-08
-1.02275e-09
6.2906e-10
-6.06661e-09
-6.45397e-10
-2.3275e-11
-6.04219e-13
-1.72421e-14
-8.57446e-16
-3.40319e-16
1.57883e-15
3.4539e-15
6.3119e-15
-4.89828e-14
1.35389e-13
-5.38187e-15
3.75797e-14
-3.91216e-13
1.77984e-11
6.96038e-13
1.00051e-12
-2.69678e-12
-1.34674e-12
-9.27283e-14
-2.53778e-15
2.17241e-16
3.7066e-16
1.6318e-14
-6.11292e-15
-1.62698e-14
6.44279e-13
5.6064e-12
7.55728e-13
-4.11195e-13
-9.82666e-14
-6.26727e-14
5.82877e-13
-5.46166e-13
-5.69683e-13
6.15452e-11
-4.00782e-11
2.14374e-10
1.29402e-10
-7.61762e-11
-8.84539e-12
-4.22552e-13
-1.27417e-14
-2.89232e-16
-5.36391e-18
6.60669e-19
-3.58712e-18
-1.99021e-17
-1.77284e-17
1.63624e-16
-2.83994e-16
-1.21523e-16
7.19715e-16
-3.97545e-15
5.58549e-14
2.07652e-15
1.72512e-15
-2.43475e-14
-8.84053e-15
-5.36429e-16
-1.00841e-17
-5.21798e-19
-1.93006e-17
4.12211e-17
5.3684e-17
6.44542e-17
-5.40819e-16
3.66864e-14
1.16357e-14
-2.50861e-15
-4.76398e-16
1.8013e-16
-2.80585e-15
5.99547e-15
-8.80667e-17
-2.67402e-13
-1.79833e-14
5.99518e-13
9.93142e-13
-5.71187e-13
-9.61396e-14
-5.38406e-15
-1.69783e-16
-4.40944e-18
1.96696e-19
-2.53688e-19
1.1962e-19
-1.67687e-19
2.30847e-19
-6.51409e-19
1.08119e-18
1.56112e-19
5.39135e-18
-2.9766e-17
2.01575e-16
5.17531e-18
4.91778e-18
-1.02567e-16
-3.18758e-17
-1.49534e-18
1.35211e-19
1.15041e-19
3.80411e-20
-2.60282e-19
-7.81794e-19
1.96197e-20
-1.11045e-17
2.07529e-16
1.44718e-16
-1.69886e-17
-3.99533e-18
-7.57307e-19
4.92992e-18
-2.58673e-17
1.6691e-17
6.68098e-16
-5.15075e-17
1.51109e-15
1.77193e-15
-5.62697e-15
-8.05228e-16
-3.46565e-17
-1.03982e-18
-1.579e-19
4.39017e-19
-3.25049e-20
-2.68977e-20
4.22984e-19
5.51828e-19
-1.61233e-19
-8.07471e-19
1.32864e-19
3.01346e-20
-4.74202e-19
1.13342e-18
6.94393e-20
-8.56168e-20
-3.87018e-19
-1.3257e-19
2.80851e-19
3.45185e-19
-7.46661e-22
-1.02814e-20
-1.06554e-19
-9.01216e-20
2.06101e-19
-4.21293e-20
1.28571e-18
8.4131e-19
-4.30602e-19
1.07212e-19
1.65474e-20
1.46578e-19
1.17644e-19
-3.09477e-20
-3.36043e-19
-2.66804e-19
1.63927e-18
-2.77065e-17
-3.5851e-17
-4.14537e-18
-2.47191e-19
-1.86173e-19
3.7097e-20
3.74373e-20
2.46832e-19
1.67222e-20
3.50413e-19
-1.78047e-20
-4.26654e-19
-3.73726e-19
-1.05479e-19
1.99009e-19
-1.39793e-19
-1.47105e-19
4.8638e-20
1.06655e-19
1.41876e-20
-4.8755e-20
-2.66833e-19
-1.14912e-19
8.3899e-21
-7.46625e-20
-1.29596e-19
-2.0431e-19
6.52303e-19
2.26653e-21
-1.25281e-19
1.44891e-19
-1.01567e-19
-8.5323e-20
-2.15277e-20
3.39678e-20
4.07426e-20
-2.61325e-20
-1.05337e-19
1.66314e-19
2.97998e-20
-2.27194e-19
-3.94534e-19
2.19475e-19
-3.6996e-20
-3.64998e-19
-1.43591e-19
-4.78164e-19
1.64379e-19
1.3875e-19
-6.77766e-19
-7.9968e-19
1.44725e-18
3.05331e-19
-1.04486e-19
3.87665e-20
-8.66542e-20
-7.23205e-20
1.134e-19
-1.78974e-20
-6.39829e-20
-3.43629e-20
3.25824e-19
-8.32305e-19
-4.12373e-19
1.57201e-19
4.2852e-19
-1.27243e-20
4.703e-19
3.5607e-19
-3.62701e-19
7.51788e-20
-2.90327e-19
-2.29643e-19
-1.29875e-19
1.65426e-19
2.02525e-20
-1.37128e-20
-1.165e-19
1.60893e-19
-1.42095e-19
-1.25218e-19
-2.77912e-19
3.6911e-19
4.96418e-20
-3.6286e-19
-1.438e-19
-1.67068e-19
1.90731e-20
-1.44666e-20
-6.82995e-20
6.24628e-19
1.50884e-18
-1.32831e-19
-5.99981e-20
1.9032e-19
1.19711e-20
-4.76055e-20
-6.49383e-20
-8.89913e-20
7.94202e-20
5.28581e-20
7.16296e-20
-1.53222e-19
2.03365e-19
-5.58289e-20
2.32008e-19
5.02738e-19
-2.80059e-20
-1.61504e-19
-1.90385e-19
-6.41584e-20
3.10294e-20
-4.71175e-20
1.13942e-20
7.22449e-20
2.36424e-20
-6.35601e-20
1.79573e-20
-1.82119e-19
2.00239e-20
5.52684e-20
-2.15236e-19
2.90294e-19
5.37767e-19
2.9297e-19
-1.03168e-19
3.04771e-19
6.91538e-21
-3.17369e-19
1.22228e-20
-3.05093e-19
-8.68689e-19
2.42734e-20
4.20375e-20
-2.84675e-19
5.581e-19
2.95998e-19
-2.27331e-20
7.09952e-21
7.55809e-20
8.83008e-20
-3.47121e-19
1.32719e-19
-2.19843e-20
-4.89582e-20
-5.67155e-20
-7.73232e-20
-4.1351e-20
-9.20539e-20
2.51867e-19
8.976e-22
5.43367e-20
7.57077e-21
-1.34499e-20
-1.90796e-20
-1.73996e-20
-2.90198e-20
7.35464e-21
-3.79495e-21
2.89027e-20
2.76023e-19
1.72682e-19
-3.9793e-19
-6.58833e-20
7.21642e-19
1.57624e-19
-1.18343e-19
6.99414e-20
2.40686e-20
-3.69249e-19
-2.38345e-19
-2.04323e-19
6.33336e-20
1.6973e-19
4.96257e-20
1.09365e-19
5.97333e-20
-1.81207e-20
3.43456e-20
6.65305e-20
8.80418e-20
-7.33037e-20
8.4166e-20
-1.07893e-20
-1.60703e-20
2.14075e-19
-2.95988e-19
-4.89979e-20
1.88122e-19
-2.49211e-19
3.86203e-20
-2.66229e-20
2.76401e-20
-8.87973e-20
2.79086e-20
-2.94084e-20
-2.97972e-20
-4.58495e-20
-3.68752e-20
1.15024e-19
9.45037e-20
7.11807e-20
-1.15639e-19
-5.15195e-20
-7.4619e-20
2.39118e-20
-9.29277e-21
1.90909e-20
7.38871e-20
-3.3102e-19
1.27409e-19
3.29141e-19
-1.61931e-20
-5.44779e-20
-6.95808e-20
-1.17446e-19
-2.0409e-19
-1.30099e-19
-5.15223e-20
5.71459e-21
-2.23861e-20
9.74039e-20
-2.14841e-20
-5.0575e-20
5.06437e-20
1.68595e-19
3.04328e-20
-1.13814e-19
-3.08857e-19
-1.24143e-19
4.29165e-20
-2.74993e-20
9.39058e-21
-1.513e-19
6.03673e-20
5.01986e-21
5.13236e-20
7.15779e-20
-1.92379e-19
-3.05362e-20
3.56351e-20
-4.43143e-20
3.38224e-20
-1.33992e-20
-6.18866e-20
-2.07122e-19
-8.45391e-21
-1.42058e-20
1.56848e-19
1.43985e-19
-1.41066e-19
7.18518e-20
2.99628e-20
-1.72962e-19
-1.40033e-19
1.88066e-19
6.71565e-20
0.000107805
1.36415e-05
-3.61133e-05
-2.02135e-05
1.2316e-05
2.11642e-05
1.72742e-05
2.57358e-06
2.23652e-05
6.49489e-05
6.85287e-05
3.66103e-05
-2.5117e-05
-8.25713e-05
-9.6356e-05
-0.000133353
-0.000170683
-0.000201394
-0.000195961
-0.000171045
-6.48121e-05
8.45953e-05
5.18481e-05
-7.60531e-05
-0.00016263
-0.000212258
-0.000212911
-0.000179728
-0.000108119
-3.13731e-05
3.03751e-05
1.43206e-05
-5.51809e-05
-0.000101812
-5.332e-05
-1.90326e-05
-7.75517e-05
-2.21695e-05
9.30459e-05
0.000152192
0.000371679
0.000466212
0.000176266
-9.53274e-05
-0.000172204
-0.000120957
-4.49212e-05
7.81233e-05
0.000135588
4.45818e-05
-0.000101639
-0.000216702
-0.000276537
-0.000371166
-0.00063242
-0.00087477
-0.00102632
-0.00118192
-0.00137034
-0.000933157
0.000309702
0.000880889
0.000566421
0.000419686
0.000592642
0.000715014
0.000639254
0.000366876
-0.000119614
-0.000646891
-0.000977244
-0.000893918
-0.000467623
9.29898e-06
0.000226256
7.29238e-05
-0.000208298
-0.000353299
-0.000261852
4.23904e-05
8.15388e-05
0.000114318
5.60582e-05
-1.44328e-05
-3.48162e-05
-2.97914e-05
-2.00479e-05
-7.40317e-06
2.83961e-05
5.43476e-05
4.74877e-05
-1.36249e-05
-8.31954e-05
-0.000150873
-0.000227313
-0.000285411
-0.000301989
-0.000316025
-0.000373891
-0.000289265
0.000136712
0.000495389
0.000375177
8.78635e-05
2.77507e-05
6.55134e-05
8.61226e-05
2.92988e-05
-0.000115084
-0.000265286
-0.000342712
-0.000292985
-0.000126977
6.16435e-05
0.000185057
0.000205998
0.000101374
-3.5911e-05
-3.69916e-05
4.34682e-05
-0.000190936
-0.000191551
-6.21449e-05
3.57285e-05
5.01775e-05
2.63621e-05
1.82878e-06
-3.6879e-05
-6.72772e-05
-4.95609e-05
1.18223e-05
7.13044e-05
0.000110604
0.000158354
0.000255559
0.00035301
0.000412629
0.000460433
0.000500416
0.000356419
-5.51215e-05
-0.000330696
-0.000230427
-0.000134896
-0.000170348
-0.000197768
-0.00017523
-8.83892e-05
7.3719e-05
0.000251912
0.000347563
0.000314707
0.000195608
5.58709e-05
-4.25088e-05
-1.43519e-05
0.000137894
0.000210753
8.20121e-05
-0.000100608
-9.17801e-05
-9.87554e-05
-3.91055e-05
2.19014e-05
3.49478e-05
2.45311e-05
1.27414e-05
-1.07083e-06
-2.01912e-05
-2.58849e-05
-1.15973e-05
2.94875e-05
7.02913e-05
0.000106267
0.000148779
0.000173231
0.000169415
0.000164454
0.000172651
0.000110956
-5.97886e-05
-0.00021431
-0.000202858
-7.36322e-05
-4.74076e-05
-5.92924e-05
-5.8244e-05
-2.21592e-05
5.84696e-05
0.000145867
0.000186485
0.000150063
6.33047e-05
-2.81972e-05
-9.19939e-05
-9.20223e-05
-8.06801e-06
8.71823e-05
6.7762e-05
-4.67703e-05
-1.52979e-05
-2.13984e-05
-1.32356e-05
4.35514e-06
1.01736e-05
8.09863e-06
5.18651e-06
3.00154e-06
-8.23629e-07
-4.33065e-06
-5.65172e-06
2.82891e-06
1.78145e-05
3.01195e-05
3.67456e-05
3.52334e-05
2.69624e-05
2.13569e-05
2.72386e-05
2.27935e-05
-1.37057e-05
-3.41272e-05
-4.28056e-05
-2.58416e-05
-7.24902e-06
-6.16553e-06
-8.7715e-06
-3.76706e-06
1.12364e-05
2.7092e-05
3.42348e-05
2.83925e-05
1.12569e-05
-7.77017e-06
-2.16568e-05
-2.5329e-05
-1.32559e-05
1.16627e-05
2.08772e-05
-6.56835e-06
-1.62919e-06
6.29059e-07
-2.56753e-06
-8.83594e-07
9.71379e-07
1.20071e-06
8.90585e-07
6.95419e-07
5.37354e-07
4.7855e-10
-4.91348e-07
-3.56133e-07
1.48532e-06
3.68153e-06
3.15309e-06
1.24637e-06
3.88588e-07
-1.37788e-06
-1.37216e-06
5.3966e-06
-4.99479e-06
-9.14361e-06
2.3849e-07
-3.61425e-06
-1.85898e-06
5.24425e-07
-3.09888e-07
-3.78185e-07
6.99445e-07
7.3504e-07
2.06272e-07
1.21286e-06
1.11311e-06
-7.39529e-07
-1.97902e-06
-1.58257e-06
-1.255e-06
-4.42234e-07
3.97873e-06
5.73684e-07
-1.50752e-06
4.38768e-06
1.68786e-06
-5.94662e-07
-1.03148e-06
-7.04025e-07
-3.49635e-07
-2.50521e-07
-8.99482e-08
2.04595e-07
4.87768e-07
2.38536e-07
-1.01871e-06
-2.33082e-06
-3.39013e-06
-3.11075e-06
-1.50623e-06
-6.47094e-07
-2.19357e-06
-9.77536e-07
-2.42514e-06
-8.98809e-06
7.87337e-07
2.94331e-06
4.06494e-09
1.76274e-07
2.75059e-07
1.12397e-07
-2.62545e-07
-1.52648e-06
-2.36107e-06
-1.32237e-06
-5.92462e-08
-2.08182e-07
-5.12636e-07
1.93665e-07
1.12052e-06
-7.90103e-08
-6.12055e-07
9.81712e-07
-5.47068e-07
2.34452e-06
2.44309e-06
1.6774e-07
-6.16752e-07
-6.31936e-07
-3.97572e-07
-2.59977e-07
-2.33755e-07
-8.08664e-08
1.44941e-07
1.42537e-07
-7.02856e-07
-1.7306e-06
-1.95081e-06
-1.33679e-06
-6.94065e-07
-1.43378e-07
-4.76217e-08