/*--------------------------------*- C++ -*----------------------------------*\
| =========                 |                                                 |
| \\      /  F ield         | OpenFOAM: The Open Source CFD Toolbox           |
|  \\    /   O peration     | Version:  5.0                                   |
|   \\  /    A nd           | Web:      www.OpenFOAM.org                      |
|    \\/     M anipulation  |                                                 |
\*---------------------------------------------------------------------------*/
FoamFile
{
    version     2.0;
    format      ascii;
    class       volScalarField;
    location    "50.4676134421789371";
    object      MDw;
}
// * * * * * * * * * * * * * * * * * * * * * * * * * * * * * * * * * * * * * //

dimensions      [0 -1 -1 1 0 0 0];

internalField   nonuniform List<scalar> 
60000
(
-52.9117
-38.0524
-16.1018
4.43484
21.3763
34.1446
34.8885
17.3385
-13.8972
-43.1462
-54.9805
-46.6058
-25.1927
-2.65643
17.0849
36.5607
53.2796
63.8471
73.608
67.8343
28.0491
-35.2103
-83.0471
-91.574
-71.4354
-45.173
-31.0718
-32.1926
-32.6341
-12.3621
23.8819
54.5972
72.0037
83.9009
91.6633
74.5694
25.0489
-22.8212
-49.4836
-57.7246
59.6363
43.7105
20.8954
-3.50916
-26.9636
-42.6799
-41.3522
-19.7351
15.1096
45.1373
55.9677
46.438
24.6313
2.23069
-19.3009
-43.067
-63.5868
-76.3572
-88.2181
-83.0611
-42.2716
19.2389
66.6689
83.7608
74.656
57.9012
51.9508
59.3354
58.2562
24.4547
-28.7375
-69.051
-89.2124
-103.324
-113.445
-91.1228
-25.9837
34.0075
62.9087
67.5978
11.3993
4.57088
-3.13786
-4.70032
-2.8281
-5.29961
-7.2742
-2.66488
7.77047
18.5661
22.3264
18.1395
8.28282
-2.51989
-9.25102
-11.9172
-12.5913
-11.3674
-9.1026
-3.17159
12.2405
40.5922
60.2649
50.3859
24.7873
-0.133005
-16.6072
-22.7068
-17.8232
-7.14074
-1.16431
-3.0743
-6.7568
-7.16964
-5.37594
-5.04807
-6.17671
-2.02423
6.25115
12.3564
-10.9202
-5.52665
-0.641888
2.39306
5.99825
9.89399
8.52062
1.45887
-7.97944
-14.3739
-14.7576
-11.0569
-4.94946
1.10879
6.22839
11.1091
14.4386
15.173
14.9492
12.2477
2.54205
-12.1583
-19.7341
-19.6216
-15.6029
-9.93686
-6.58894
-7.64628
-9.31562
-5.54563
3.44464
12.1764
16.9118
18.2135
17.4894
13.5067
4.00811
-7.43667
-14.6119
-15.0428
-5.43251
-3.45047
-0.577142
1.2113
1.72002
2.61553
3.45331
1.99029
-1.45078
-5.25368
-6.8215
-5.7781
-3.11164
0.266493
2.9663
4.62075
5.36521
5.25115
4.78755
3.22438
-0.0951642
-9.08493
-17.5481
-16.8402
-9.88717
-2.38323
2.22028
3.47802
2.18102
1.04987
1.73169
3.45583
5.18881
6.51883
6.76171
5.0149
2.36185
-0.538749
-3.41549
-5.41403
-1.05221
-1.05116
-0.579125
0.00456498
0.205066
0.257497
0.47952
0.555735
0.10068
-0.619641
-1.184
-1.13655
-0.939688
-0.39103
0.516875
1.12307
1.21555
1.01999
0.947607
0.0414264
-0.20896
-1.33363
-5.19395
-5.9595
-2.91387
-0.421501
0.462046
1.02184
1.1128
0.667582
0.458821
0.51787
0.632996
0.929422
1.51016
1.49421
0.815686
0.365517
-0.0752604
-0.660787
-0.0506389
-0.0639083
-0.0928294
-0.0866581
-0.0505078
-0.0507751
-0.045411
0.056226
0.0756901
-0.00828937
-0.164577
-0.118969
-0.00534682
-0.116879
-0.0743279
0.097225
0.247898
0.302053
0.4942
0.346043
-0.320871
0.168251
-1.00027
-1.39635
-0.180498
0.0753381
-0.0428861
-0.00610049
0.231114
0.268479
0.140689
0.047966
-0.04914
-0.114796
0.00627476
0.253308
0.17461
0.104077
0.148052
0.0786211
0.0331204
0.0387125
0.0510999
0.0120657
-0.0139576
-0.0302777
-0.0511098
-0.0416834
-0.00211104
0.00882331
-0.00953389
-0.0298459
0.0605075
0.0592899
-0.06632
-0.172683
-0.139008
0.0672744
0.178039
0.520857
0.0878901
0.116449
0.178126
0.349826
0.388619
0.0648315
-0.00861414
-0.0378172
-0.00870612
0.0711715
0.0649377
0.0339391
-0.00245159
-0.0556053
-0.086102
-0.0234191
0.0157733
-0.0342449
-0.00854242
0.0406571
0.00804474
0.0139329
0.022656
0.0146333
0.00445434
-0.00117423
-0.00984359
-0.0198411
-0.0124656
-0.00246675
6.02462e-05
-0.0137807
0.00195458
0.0272305
-0.0212617
-0.11814
-0.158353
-0.0472848
0.00878129
0.189176
0.246542
0.0273717
0.413979
0.562924
0.208626
0.0219501
-0.00258053
0.00132528
-0.0120357
-0.000868022
0.0108837
0.00513015
0.0125689
0.00929648
-0.0148804
-0.0234607
-0.00754902
-0.0175887
-0.0284225
-0.0103314
-0.00256004
0.00216154
0.00502307
0.00384795
0.000589647
0.000349516
-0.00049218
-0.00285154
-0.00378265
-0.00124625
-0.000565677
-0.00625424
-0.00529532
0.00801891
-0.00705864
-0.0306221
-0.0431229
-0.0458919
-0.00373987
-0.0184438
0.0874681
0.0055379
0.284722
0.30305
0.0695051
0.00576561
0.000480076
-6.67236e-05
0.000909208
-0.00194939
-0.000383614
-0.00335981
-0.00486958
0.00271604
0.00263131
-0.00464451
-0.00512123
-0.0044399
-0.00801334
-0.00849408
-0.0017007
-0.000337503
0.000848585
0.000947229
8.59721e-05
6.49957e-06
-6.77845e-05
-0.000451339
-0.00061294
-0.000233833
-0.000385679
-0.00273009
-0.0020829
-0.000125475
-0.00609828
-0.00478366
0.000169555
-0.0127972
0.00011266
-0.0207874
-0.0197822
-0.00209655
0.110385
0.103778
0.0217111
0.00222294
-6.09338e-05
6.08042e-05
0.000212418
0.00011578
0.000100549
0.000178673
-0.00191443
-0.00203568
0.000174522
-0.000242551
-0.00138401
-0.00133617
-0.00154269
-0.00237636
-0.000439835
-0.000360335
6.78345e-05
0.000247461
0.00028353
9.2344e-06
-3.01511e-06
-2.50688e-05
-0.000221784
-0.000146748
-0.000183424
-0.000942612
-0.000434654
-0.00103799
-0.00369199
-0.00139121
0.00190966
-0.00076011
-0.000497316
-0.00182124
-0.0172998
-0.00373456
0.0232893
0.0209256
0.0055518
0.000890891
0.000188195
1.78786e-05
-9.23369e-05
9.6772e-06
-9.88104e-06
5.05788e-05
0.000368052
-0.000126807
-0.000296782
-3.19047e-06
-0.000200473
-0.000318671
-0.000348667
-0.000343653
-9.78544e-06
-4.8596e-05
6.93095e-06
2.97835e-05
6.51474e-06
9.21598e-07
2.12539e-06
1.23631e-05
-2.47067e-05
-2.36715e-05
-1.44081e-05
-0.000341875
-0.000152837
-0.000364844
-0.00136414
-0.000901572
0.000269519
0.000161225
3.76804e-05
0.000621429
-0.00131462
-0.00157744
0.00149356
0.00203437
0.00104139
0.000360308
0.00023953
2.66887e-06
-1.5647e-07
-7.82964e-07
-7.17848e-07
-1.99802e-06
1.52313e-06
5.49866e-06
-1.75913e-06
-3.44284e-08
-3.2992e-07
-1.21973e-05
-1.215e-05
1.50766e-05
-5.29015e-06
-8.19929e-06
-5.90975e-07
1.09258e-06
1.15545e-07
5.0867e-09
1.13046e-09
1.38695e-07
1.28346e-06
-7.45183e-06
5.92439e-06
-0.000208112
-2.28715e-05
-1.35212e-05
-0.000270691
-0.000287754
-8.49444e-07
-3.23867e-05
7.91996e-05
2.06505e-05
0.0012768
0.000320928
-0.000496333
0.000145268
0.000418743
0.000247464
3.96355e-06
1.36165e-08
1.42514e-09
7.40895e-09
8.81732e-10
8.66571e-09
-7.22461e-09
-3.08347e-08
6.72992e-09
4.93939e-09
1.03986e-08
-4.97421e-07
-1.30337e-07
-1.75013e-07
-2.21063e-08
-8.9214e-08
-4.18994e-08
4.19306e-09
7.91517e-10
5.28457e-11
6.57557e-12
-2.79051e-11
-1.6779e-08
4.28951e-07
-3.7908e-06
-8.37893e-06
-1.55579e-05
6.88484e-06
-1.15251e-05
-1.86591e-06
-1.67169e-06
-9.1289e-06
3.89027e-06
-0.000148198
0.000466245
0.000407794
-0.00020032
3.31334e-05
0.000143543
6.70209e-06
1.44444e-07
-9.79194e-10
-2.61016e-10
-5.21657e-11
9.79905e-12
-1.42647e-11
1.81965e-11
1.22509e-10
-1.58847e-11
-2.34864e-11
-7.35636e-12
-9.38618e-10
-1.30077e-09
5.47932e-09
-1.36745e-11
-5.74818e-10
-6.36738e-10
-6.79435e-11
2.80765e-13
3.72863e-13
-1.91802e-13
3.304e-12
-1.58653e-12
-3.34885e-10
-5.8111e-09
-2.7381e-10
1.2176e-06
8.57898e-07
-3.99469e-08
-2.39896e-09
-6.14532e-10
-2.68007e-07
-5.23227e-07
-9.15968e-07
-3.92484e-06
2.1127e-06
-9.76065e-06
-6.33804e-07
4.97039e-07
2.20027e-08
1.3595e-10
-1.94361e-12
9.07109e-13
2.01366e-13
-4.7405e-15
-2.57815e-14
-1.92863e-14
-3.13462e-13
3.67607e-14
1.36113e-13
-1.0433e-13
-5.91772e-13
-8.32531e-12
3.77122e-11
3.26751e-13
-1.47558e-12
-2.09722e-12
-3.09288e-13
-2.21807e-14
-1.81253e-15
1.832e-15
-8.47882e-15
6.28024e-14
4.60692e-13
-1.6716e-11
3.02079e-10
2.02119e-09
7.54762e-09
9.23824e-10
9.16372e-11
1.26095e-11
-1.00608e-10
1.23159e-09
2.84412e-09
1.21896e-08
6.88642e-10
-3.25682e-08
-8.29028e-09
1.93482e-09
1.47837e-10
4.70374e-12
5.52398e-14
-4.9202e-15
-3.43445e-15
8.25926e-15
-1.29386e-14
1.20942e-14
-2.48715e-14
-6.10126e-15
4.24272e-14
5.74736e-14
-2.02307e-14
-3.18733e-14
1.28686e-13
-8.42529e-15
-9.11803e-16
-1.79341e-15
3.66092e-16
6.64497e-16
-2.6584e-15
1.03043e-14
5.57656e-16
2.55316e-15
1.76217e-15
-1.26585e-14
6.37105e-13
1.35989e-12
5.40951e-11
1.38445e-11
6.65247e-13
-5.4254e-15
6.22203e-14
-2.83949e-12
-5.5692e-12
-2.50839e-11
4.17501e-12
-7.71558e-11
-3.13516e-11
9.78455e-12
1.06088e-12
4.02499e-14
-1.90687e-16
8.0523e-16
-3.19196e-15
-1.24488e-15
6.40406e-15
3.45091e-15
9.53774e-15
8.87165e-15
-7.7239e-15
2.56207e-14
-1.63566e-14
1.87072e-15
1.27588e-15
-3.1551e-15
2.19055e-15
4.14983e-15
5.20233e-15
3.19029e-15
8.46784e-16
9.08383e-15
1.51306e-15
-1.44321e-15
1.98165e-15
-2.97253e-16
3.57597e-15
-4.29417e-15
2.14869e-13
5.08794e-14
-4.07169e-15
-3.37678e-15
-1.98027e-15
1.4583e-14
-5.63723e-15
2.6479e-14
7.86724e-15
-2.34371e-13
-1.64611e-13
4.67082e-14
3.19533e-15
1.3112e-14
-6.05144e-16
4.02072e-15
2.18104e-15
-7.34998e-15
-1.05121e-14
1.42115e-14
-2.65932e-14
-6.55746e-15
-1.42152e-14
2.17758e-14
1.21999e-14
-8.18592e-15
5.13447e-15
3.3507e-15
-4.58042e-15
-7.74567e-16
1.256e-15
2.91268e-15
-5.61967e-15
-1.54141e-14
-5.49772e-15
3.51743e-15
3.37222e-15
3.4855e-15
-2.5284e-15
5.55022e-15
-5.1482e-15
-2.33852e-15
6.83566e-15
5.55883e-16
-5.82806e-16
1.89171e-16
3.38076e-15
5.47383e-15
4.54202e-15
-9.13148e-16
-2.19234e-15
-4.25724e-15
2.9703e-15
-4.46042e-15
-1.68965e-15
-4.9751e-15
3.98153e-15
-1.15308e-15
-1.43926e-14
1.05808e-14
2.27121e-14
2.44735e-15
3.31794e-16
-1.51228e-14
1.62749e-14
2.91049e-15
6.28526e-15
2.41753e-15
-8.718e-15
-2.4092e-15
1.27152e-15
6.85929e-16
-2.35297e-15
2.3489e-15
-3.98756e-15
-9.35677e-15
-3.6635e-17
-2.74176e-15
-6.41484e-15
-1.16823e-15
-5.60479e-15
2.67725e-16
5.81822e-16
6.67984e-16
-3.7024e-15
-1.2745e-15
-1.64675e-15
6.62973e-16
-1.69051e-15
5.71869e-16
2.42156e-15
2.42848e-15
3.93574e-16
-3.53434e-15
-1.82995e-15
-7.33206e-15
1.91563e-15
3.92667e-15
-6.59699e-15
-1.26591e-14
1.27736e-14
2.60438e-14
-3.35057e-15
-9.71383e-15
-1.36395e-14
7.51538e-15
-1.45864e-14
-2.83775e-17
-9.84393e-16
-1.57103e-15
-1.59088e-15
9.84998e-17
2.15222e-15
3.24897e-15
1.45372e-15
2.52043e-16
1.40243e-15
-5.26101e-16
-3.97965e-15
-1.1413e-14
3.62835e-15
7.14115e-15
8.7517e-16
-2.32043e-17
1.00914e-15
-1.63577e-15
4.45561e-15
-7.05274e-16
5.81716e-15
-1.62685e-15
-4.36406e-15
-2.62792e-15
-1.21728e-15
-6.53922e-16
-2.87348e-15
6.70896e-16
-4.39452e-16
2.36559e-15
4.22017e-15
-1.37692e-15
1.31999e-15
8.91304e-15
4.69883e-15
-1.976e-15
-8.48072e-16
7.548e-15
1.05676e-14
4.89539e-16
1.05849e-15
-8.53943e-16
7.73273e-16
2.00176e-15
-7.37335e-16
-9.64253e-16
2.01675e-16
1.84098e-15
-2.70827e-17
-1.18421e-15
-1.06617e-15
-3.08983e-15
7.47102e-15
5.15804e-15
-8.1733e-16
-6.21516e-16
1.6255e-15
1.1693e-15
-1.85242e-16
-3.767e-16
-1.97901e-15
8.61915e-16
2.79899e-15
3.13847e-15
-4.5888e-15
-7.72519e-16
1.49034e-15
3.43605e-15
1.95207e-15
-2.7707e-16
-2.3898e-15
-5.57746e-15
-8.2812e-16
-3.00894e-15
-1.04816e-17
1.1853e-15
9.58244e-16
-3.39666e-15
-2.08283e-15
-8.69314e-17
1.42902e-15
3.25365e-15
-2.15929e-15
1.61739e-15
4.1656e-15
-2.5899e-15
-3.09984e-15
1.89012e-15
-2.55709e-15
1.81253e-15
8.51904e-16
-7.95144e-15
-2.54537e-15
4.70846e-16
-1.46904e-15
-2.92725e-16
8.60145e-16
2.7648e-15
1.78086e-15
1.03863e-15
-1.5156e-15
4.14955e-15
2.68445e-16
-2.26307e-15
-2.8953e-15
6.35936e-15
1.57155e-15
-6.07499e-16
-6.93986e-15
-2.71937e-15
3.71481e-15
9.61706e-16
-1.05013e-14
-2.94839e-15
9.59316e-16
-9.23388e-16
1.0614e-15
1.68303e-15
-2.09058e-16
-2.7453e-16
-5.65155e-16
-4.38721e-15
4.62924e-16
5.96391e-16
1.14195e-15
4.81665e-15
4.95098e-15
-3.20976e-15
3.65013e-15
2.03691e-15
-8.6371e-16
7.28918e-16
-7.15064e-15
-1.60155e-15
5.77819e-15
-9.06349e-16
-1.03059e-15
-1.25548e-15
-1.37004e-15
-5.24648e-16
5.91021e-15
4.28724e-15
-5.72794e-15
5.27545e-16
6.2005e-18
5.13688e-16
-2.29382e-15
-5.38555e-15
-3.56956e-15
-3.36762e-15
2.6035e-15
-7.1682e-17
-7.81072e-15
1.44971e-14
8.55039e-15
-2.16554e-15
1.16459e-15
1.94308e-15
-3.90737e-15
-21.1907
-15.5567
-3.3639
2.83074
3.40353
6.6555
13.0044
9.26692
-6.8597
-25.0853
-35.6508
-36.7466
-31.8377
-24.7033
-18.9055
-20.5143
-28.4539
-21.7753
25.335
99.3722
126.888
67.4668
-21.9194
-91.127
-116.69
-112.58
-94.2982
-71.8978
-44.7239
-12.0539
20.1068
45.0986
57.6027
55.6844
44.4283
34.0482
24.5945
12.8578
0.514496
-13.0348
23.4849
18.066
3.90485
-4.83991
-7.1356
-11.8444
-17.895
-7.84453
14.4974
32.8156
40.2397
40.5993
38.1634
34.3378
31.1294
34.5869
40.8693
22.8214
-45.4265
-130.031
-139.487
-63.4911
23.0987
88.9203
121.144
130.579
124.326
105.897
72.2729
26.7076
-18.2066
-52.263
-68.2452
-63.6839
-48.4359
-39.1615
-30.0087
-15.1666
-1.58952
13.2698
7.60069
4.11373
2.27678
3.87192
5.89282
5.6883
0.893727
-6.79264
-7.50032
0.554577
8.60522
9.08712
3.16827
-4.62074
-10.7691
-12.0097
-4.9889
8.41383
15.0585
-4.62276
-33.8999
-26.4757
11.5433
42.3627
40.7451
18.2692
-4.47281
-15.9075
-16.0776
-11.7247
-8.11934
-6.38432
-7.14776
-9.89981
-8.93252
-2.29409
-0.16786
0.113143
4.83546
8.48368
-6.16702
-3.75979
-1.54342
-1.15494
-1.19939
0.110051
3.01005
2.65043
-2.11
-7.7133
-10.401
-9.82914
-8.07572
-6.27837
-5.17614
-6.2097
-8.90687
-7.37623
6.25696
25.7388
27.3903
10.9045
-9.264
-21.1521
-22.6121
-20.9983
-19.0456
-17.099
-13.2941
-6.80791
0.449761
6.35972
9.88917
9.95713
6.36765
3.96955
3.86546
1.19712
-3.14551
-5.94484
-2.62644
-1.75879
-0.40477
-0.182031
-0.65575
-0.534681
0.573254
1.7668
1.1233
-0.955063
-3.35469
-3.87707
-2.29073
0.0615536
1.9764
2.31009
0.510405
-2.18033
-1.74508
5.87891
11.5661
8.05337
-2.45903
-14.7892
-16.7741
-10.7152
-3.95876
-0.063123
1.59444
2.72684
3.97533
5.03029
5.6571
5.93802
4.85027
2.41365
1.41237
0.968479
-0.410667
-2.04845
-0.398709
-0.440592
-0.172224
0.0293975
-0.0552675
-0.125876
-0.0174715
0.283058
0.21157
0.0265806
-0.218568
-0.6988
-0.554795
0.12825
0.741927
0.813198
0.355222
-0.208621
-0.854511
0.316792
2.45386
1.46116
0.44768
-3.37071
-5.16022
-3.15906
-0.853095
0.437721
0.912321
0.975124
0.971402
1.00216
1.03085
1.20065
1.49229
0.948778
0.404241
0.351662
0.204504
-0.197046
0.00475762
-0.0400838
-0.0897728
-0.0144604
0.0250438
0.0105387
-0.0250685
0.0340108
0.0957381
-0.0965343
0.0971125
0.151185
0.0124992
0.0346075
0.0949402
0.0538532
-0.0368318
0.000555888
-0.0722424
-0.2728
0.775192
0.339221
0.220576
-0.083653
-0.567981
-0.234354
-0.0795798
0.0694505
0.19635
0.168128
0.0590757
-0.0115802
-0.0248252
-0.0536138
0.115713
0.242676
-0.0114822
0.0383672
0.134987
0.0840674
0.044585
0.0366985
-0.0132908
-0.0161209
0.0131508
0.0221983
0.00611209
-0.00927706
0.0733213
0.0160463
-0.0531563
0.137932
0.13716
0.0324845
-0.0537822
-0.0816189
-0.0325028
0.00961774
0.0646344
-0.0804904
0.143756
0.39685
0.0765153
0.327299
0.480432
0.289176
0.0454864
0.0119115
0.0383472
0.0361203
0.0147599
-8.75993e-06
0.00942531
-0.0114714
-0.0655945
0.0631602
0.0102207
-0.066774
0.00589459
0.0669066
0.0268549
0.0285169
0.0162375
-0.00409513
8.1674e-05
0.00568004
0.00811949
-0.00524473
0.00271972
0.0561541
-0.0229304
-0.00688174
0.065515
0.0199662
-0.0460144
-0.045995
-0.00783172
-0.00160203
0.0277186
0.0329085
-0.00153524
0.243199
0.0636508
0.196585
0.330926
0.126722
0.0142038
0.00348926
0.00397619
0.00398192
0.000871183
-0.00139061
-0.000880917
0.0198683
-0.00302503
-0.00406883
0.0440962
-0.0263791
-0.0425728
0.0026676
0.00446527
0.0120517
0.0103275
-0.00166052
-0.00417709
-0.000442754
0.00316099
0.0029112
-0.00950212
0.00812579
0.0159665
-0.0249705
-0.00706358
-0.00297928
-0.018811
-0.0119551
-0.000737645
-0.00554092
0.00377303
0.0221415
-0.00485781
0.0791789
0.0249758
0.0870597
0.130229
0.0347724
0.00273261
0.000912101
0.000135473
-0.000160384
-9.02201e-05
-0.000221484
-0.00345052
-0.00615397
0.00794615
-0.00354089
0.0133288
0.00757478
-0.0212978
-0.0167179
-0.00279192
0.00266977
0.00303536
-0.000827266
-0.00162247
-0.000321741
0.000244592
0.00162019
-0.0011219
-0.00688001
0.00416478
-0.0057167
-0.0194982
-0.0134827
-0.00707198
-0.00127777
0.00102437
-0.00208467
-0.000595584
0.00783438
-0.00202231
0.00746958
0.00267329
0.0331536
0.0393628
0.00649636
-0.000242499
-0.000389884
-1.55842e-06
-1.44913e-05
1.46194e-06
0.000181979
0.000668315
-0.00216323
2.81076e-05
0.00155098
0.000453458
0.00526781
-0.00299201
-0.00892958
-0.00192881
7.35227e-05
0.000573385
0.00011073
-4.70858e-05
-1.10015e-06
2.60848e-05
-7.8883e-05
0.000419807
-0.00242028
-0.00216363
0.000157539
-0.00738262
-0.00764907
-0.00266259
-0.00116835
-3.91211e-05
-0.000152144
-0.000119007
0.00237271
0.000309197
-0.00611724
-0.00139723
0.00808341
0.00556099
-7.28048e-05
-0.000429773
-0.000101054
-1.33513e-05
1.60038e-08
-1.61544e-06
-2.21419e-05
9.33384e-05
3.35552e-05
-0.000444693
0.000431145
-0.000137252
0.0008333
0.000585174
-0.00171218
-0.000493254
-0.000145927
0.000121447
0.000127242
6.57993e-05
8.68095e-06
-4.00458e-07
-1.04138e-05
-1.72879e-05
-0.000316088
-0.000955604
0.000100007
-0.000552206
-0.00224994
-0.00123583
-0.000528916
-0.000191034
-9.00537e-06
-5.79577e-05
0.000307405
0.000349468
-0.00285486
-0.000609687
0.000145643
-0.000603842
-0.000371075
-7.88582e-06
-1.61303e-06
-7.81821e-07
-6.16861e-08
2.7011e-08
-1.46743e-06
-5.46524e-06
1.56894e-05
-5.09716e-05
5.93403e-06
7.73187e-05
3.50675e-05
0.000238862
1.72932e-05
-1.56042e-05
-0.000251273
-4.2894e-05
1.90143e-05
6.60167e-06
7.12829e-07
-3.58916e-08
-2.78184e-06
-2.71782e-06
-4.02734e-06
-0.000248156
-2.67681e-05
3.09651e-06
-0.000522592
-0.000604473
-1.83908e-05
-1.06056e-05
4.90485e-06
-0.000164176
1.15708e-05
-3.72294e-06
-0.000501216
-5.4421e-05
-0.000254307
-0.000366746
-2.58434e-05
1.46786e-06
-1.46143e-07
-1.32757e-08
-1.79468e-10
-4.01824e-11
8.38678e-09
5.10486e-08
-1.58897e-07
5.04238e-07
-1.65768e-06
-5.81028e-08
3.684e-07
9.45094e-06
3.36143e-05
-8.15751e-06
-9.76948e-06
-3.22694e-06
5.08532e-07
4.49601e-08
1.59672e-09
-1.37183e-09
3.26975e-08
-2.95199e-07
1.77011e-07
-1.49162e-07
6.67052e-06
7.57637e-06
-1.32589e-05
-4.17255e-06
-8.2104e-07
5.69175e-09
9.69512e-07
-3.25252e-07
-2.36116e-07
4.37208e-06
8.67247e-05
5.74438e-06
-1.90097e-05
-4.10488e-05
-1.91243e-06
-1.09574e-07
-6.52694e-09
-3.3791e-10
-1.68814e-11
-4.37308e-12
-5.8643e-12
-2.65124e-10
1.11585e-09
-3.27777e-09
6.0713e-09
-1.42454e-10
-6.37112e-10
8.9874e-08
-1.67875e-06
-3.79407e-08
-8.69787e-08
-6.85725e-08
-5.66879e-09
-7.61195e-11
2.33366e-12
1.62083e-12
-1.31942e-10
1.33912e-09
7.09251e-12
-3.89265e-10
1.20888e-08
6.46103e-08
-7.32212e-08
-2.4607e-08
-1.96417e-09
2.17969e-10
-9.67797e-09
1.05647e-08
2.7754e-08
-1.51783e-06
6.40473e-07
-2.19445e-06
-3.49761e-06
-9.55238e-07
-1.49733e-08
2.26846e-09
1.15274e-10
1.20551e-12
-1.23694e-13
5.13725e-14
-2.09094e-13
-4.99275e-14
-4.98351e-12
1.55089e-11
-1.76205e-11
-5.57781e-12
9.91603e-12
4.33079e-10
-4.83299e-09
-1.0866e-10
-4.19294e-10
-5.3535e-10
-5.55209e-11
-2.33485e-12
-1.2286e-13
-1.29223e-13
8.49557e-13
-2.8655e-12
-2.27566e-14
9.83754e-13
-7.34906e-12
3.51265e-10
-2.43847e-10
-1.17306e-10
-6.81311e-12
-7.07708e-13
3.34636e-11
-6.51184e-11
-3.84203e-10
9.05672e-09
4.93982e-10
-1.24332e-08
-2.70289e-08
2.82105e-09
1.12334e-09
7.26567e-11
2.20163e-12
1.53539e-14
4.66633e-15
-1.77607e-14
-1.45983e-14
2.40112e-14
1.77846e-14
-6.60071e-14
6.97547e-14
6.40249e-15
2.05939e-13
1.33651e-12
-1.28437e-11
-2.09718e-13
-6.79374e-13
-3.06858e-13
3.44652e-14
-1.17285e-14
-1.31147e-16
1.31558e-14
-6.65751e-15
1.03195e-14
-3.8745e-16
4.08207e-16
-1.18623e-13
1.71708e-12
-1.01144e-13
-6.92724e-13
-8.49802e-14
3.93433e-16
-2.35967e-14
2.60647e-13
7.65155e-13
-2.13435e-11
1.5216e-12
-3.92466e-11
-1.06599e-10
7.17467e-11
1.3398e-11
8.0816e-13
2.31763e-14
-4.79134e-16
4.76095e-16
3.00543e-15
-8.74376e-15
-2.45323e-14
-2.2645e-14
1.00263e-14
-6.8238e-14
1.2539e-14
-6.3841e-16
1.01701e-15
-3.50829e-14
4.81084e-15
4.00777e-15
4.11677e-15
-7.38577e-16
-1.27974e-15
4.08902e-15
2.41415e-15
-9.18396e-15
1.90519e-15
2.79662e-15
3.411e-15
2.2538e-15
9.52373e-15
-7.38511e-15
-2.01819e-14
5.99276e-15
4.32088e-15
-3.61223e-15
-1.03131e-14
4.47088e-15
2.28265e-14
8.4809e-15
-9.73884e-14
-9.05629e-13
3.58104e-13
8.57517e-14
2.43516e-15
1.54469e-15
-3.28563e-15
-1.36542e-15
5.70704e-15
1.08281e-15
-1.82558e-14
-1.65126e-15
9.51651e-15
-4.7759e-15
-1.67167e-14
2.60729e-14
-9.07321e-15
-1.17369e-15
8.87011e-15
1.36337e-14
-4.89834e-15
4.25067e-15
-4.61976e-16
-3.0947e-15
-3.53324e-15
2.82212e-15
1.54387e-15
5.59346e-16
2.90061e-16
1.90956e-15
3.10365e-15
5.84709e-16
-1.19453e-14
-1.14652e-15
1.56724e-15
-2.67196e-15
1.55306e-17
-2.45463e-15
-2.42902e-15
-5.79232e-16
4.50108e-16
-4.29942e-15
4.10078e-15
-4.43794e-16
2.72785e-15
2.98003e-15
3.48585e-15
-3.09711e-15
2.53319e-15
-4.88231e-15
2.77307e-14
1.19978e-14
-2.53155e-14
9.63815e-15
-1.78616e-15
-6.30226e-15
9.14379e-15
-7.23396e-15
1.18804e-14
-2.87132e-15
-3.95726e-15
-2.05195e-15
1.6933e-15
-8.53542e-15
-7.19804e-15
3.6255e-15
-8.83438e-15
-2.0767e-17
1.89938e-15
6.76198e-15
-1.90836e-14
-2.74005e-15
8.04007e-15
-2.0567e-15
-3.78984e-15
3.56233e-15
1.262e-15
7.79556e-16
-1.25528e-15
2.17282e-15
1.8123e-15
-2.75082e-15
6.84713e-16
-2.47776e-15
-1.65182e-15
3.6642e-15
1.66216e-15
1.01002e-15
9.11045e-16
9.72742e-15
9.72048e-15
-1.23304e-14
-2.97016e-14
3.84001e-15
5.75342e-15
-5.98774e-15
-6.4288e-15
-1.90175e-15
4.02265e-15
-4.84918e-15
4.87663e-15
-2.19135e-15
1.22801e-15
1.71062e-16
1.73047e-15
4.94572e-16
-2.47848e-15
-1.65277e-15
1.47695e-15
-1.28367e-15
-9.80126e-15
6.88182e-15
-2.61468e-16
3.82285e-15
-2.8178e-15
9.73731e-15
8.04256e-15
-4.02664e-15
1.86119e-17
-1.7373e-15
5.31373e-16
-8.08281e-16
-5.20717e-15
5.18621e-15
-7.11349e-16
-1.4456e-15
1.2411e-15
-6.15466e-16
-2.86411e-15
9.73832e-15
-3.31543e-16
5.04828e-15
1.9269e-14
5.70278e-15
-2.97651e-15
7.80638e-15
-1.73137e-14
-1.20887e-14
5.34584e-17
1.55641e-15
1.87502e-16
-4.81809e-16
-3.49942e-16
9.09437e-16
2.52499e-15
1.41272e-15
-9.16677e-16
-1.02953e-15
-2.11694e-16
-8.75875e-16
8.51833e-15
-3.36938e-15
5.66233e-16
-2.97558e-15
-8.39833e-15
-1.67447e-15
3.31891e-15
-3.65592e-15
-1.26998e-15
5.98181e-15
-2.69331e-15
1.24279e-14
3.82532e-15
-5.84512e-15
1.70324e-15
-9.76965e-15
-5.48822e-15
3.4734e-15
-6.34463e-15
-1.18436e-15
6.43357e-15
2.21315e-15
4.66637e-15
-1.53685e-15
1.86746e-15
-3.53487e-15
8.14371e-16
-2.1455e-15
5.94386e-17
1.78088e-15
1.28354e-15
-7.76134e-16
1.03456e-15
-2.32145e-15
-1.58994e-15
-5.92594e-16
-2.85601e-16
3.1988e-15
-1.23666e-15
1.62231e-15
-7.43686e-15
3.8249e-15
8.5536e-15
2.46263e-16
-1.3137e-15
-8.93398e-15
-2.16955e-15
-1.64898e-15
-1.63259e-15
6.44628e-16
2.36014e-15
3.3373e-15
7.27132e-15
-5.05366e-16
-2.36421e-15
1.67673e-15
-1.87557e-15
-2.51154e-15
-5.14961e-15
-2.03859e-15
7.2509e-15
-2.57069e-15
-6.65953e-15
-1.10039e-15
1.75665e-15
1.6928e-15
2.31949e-15
4.34751e-15
-1.84558e-16
-2.98892e-15
1.5904e-16
2.82916e-15
-2.04213e-15
6.71283e-17
-4.11708e-15
2.55241e-15
9.57347e-16
-1.02843e-15
1.62907e-16
7.33114e-15
-2.19176e-15
-1.21632e-15
3.11024e-16
-3.31619e-15
-1.47706e-15
1.80084e-15
4.55624e-17
-6.22948e-16
2.56174e-15
-6.56637e-15
1.88908e-15
2.88592e-15
3.24173e-15
2.64417e-15
-1.18079e-15
1.60531e-15
1.19595e-14
1.03557e-15
-4.09655e-15
1.09959e-16
-2.9691e-15
1.09271e-15
-5.58129e-16
-8.66892e-16
-3.34145e-15
1.87898e-15
-3.17527e-15
-2.16861e-15
2.43002
13.8897
18.8037
8.83812
-6.95029
-16.9545
-17.8741
-12.6263
-6.14286
-4.06172
-12.2702
-25.5294
-37.0127
-45.9193
-55.964
-69.7162
-83.2973
-84.4876
-57.7087
5.24006
77.6722
91.3523
27.6916
-45.1698
-88.2452
-94.1681
-72.6268
-42.9099
-19.9793
-7.48844
-3.05474
-4.24822
-10.941
-26.6746
-46.4187
-43.8406
-9.0147
18.6739
16.5054
3.52665
1.58946
-12.8424
-21.3168
-13.0715
3.95237
17.2137
22.0819
19.6072
14.2172
12.4514
21.1302
34.9664
47.7782
59.3469
73.3094
91.3105
107.616
107.157
71.9535
-5.8616
-89.3118
-93.4228
-17.7141
51.9212
90.0231
96.3795
79.4759
53.8201
32.1008
19.0855
13.9315
15.2876
24.8103
47.5596
73.1926
64.1446
13.5392
-20.359
-14.6547
0.964106
-7.23557
-7.07328
-2.42923
5.62459
11.0255
9.86587
2.90897
-5.2459
-11.1057
-12.4342
-8.48718
-2.2848
1.79169
2.19965
0.561267
-0.419852
0.519362
2.40097
1.98705
-3.97897
-17.2118
-31.9727
-19.3424
14.2494
35.2715
33.4345
18.5255
3.39827
-5.96138
-9.80231
-10.456
-10.7643
-13.5734
-18.0616
-17.7055
-9.81239
-4.66138
-9.20861
-11.496
-8.2339
2.97108
4.73318
3.70459
-0.0468546
-3.87128
-5.34984
-4.3044
-2.03375
0.0397486
0.0739282
-2.89281
-6.99538
-10.3749
-12.7939
-15.0057
-17.5124
-19.5825
-18.472
-10.4063
4.09172
17.6465
17.7066
0.3392
-16.7035
-22.0899
-19.819
-15.983
-12.2849
-9.11837
-6.8329
-5.57927
-4.79923
-4.26777
-5.79726
-9.44577
-8.93415
-0.57542
6.86826
5.73288
2.5104
1.21058
2.09297
1.73406
-0.441525
-2.45789
-2.75495
-1.41611
0.342243
1.617
1.97583
0.973205
-0.743703
-1.99266
-2.37337
-2.46746
-3.06364
-4.17944
-5.08871
-4.06145
1.17452
7.45706
9.86948
5.80065
-4.06594
-11.7884
-11.3419
-6.45494
-1.65465
1.63015
3.36005
3.75548
3.27197
2.74401
2.23536
0.922382
-0.430921
0.309472
2.40181
2.78808
1.42085
0.136232
0.386522
0.517913
-0.00686851
-0.609482
-0.712672
-0.327269
0.192364
0.519204
0.602709
0.468192
0.167901
-0.0870559
-0.165794
-0.224587
-0.388771
-0.595314
-0.750084
-1.0553
-0.615805
1.42137
2.09028
1.59818
0.323328
-2.73222
-3.50073
-1.93954
-0.221517
0.874976
1.32069
1.34626
1.16176
0.943894
0.826443
0.637162
0.315892
0.234019
0.406503
0.537117
0.270165
-0.00324889
0.0141915
0.13506
0.112123
-0.0421745
-0.142427
-0.11874
-0.00634635
0.11002
0.144107
0.135785
0.158297
0.147255
0.0958485
0.0458466
0.0119233
-0.0102691
0.0385271
0.0317451
-0.287746
0.0960819
0.698978
0.140974
0.277791
-0.18088
-0.698024
-0.454761
-0.0867173
0.0700613
0.0312369
-0.0193259
0.0222297
0.0838707
0.120466
0.115345
0.0403866
0.035696
0.0567376
0.0901599
0.0906066
0.0088875
-0.0337504
-0.00626408
0.0680922
0.087415
0.0417767
-0.0254745
-0.0593517
-0.0466947
-0.0224572
-0.0207482
0.00943577
0.0560444
0.0529571
0.0317463
0.0308283
0.0304949
0.018288
0.0687945
0.0136132
-0.104179
0.226313
0.118481
-0.00935907
0.224461
0.121843
0.0123959
0.0130359
-0.0195461
-0.0761058
-0.0876293
-0.0488084
-0.00552777
0.015973
0.0344141
0.0233771
-0.0277544
-0.0188244
-0.0018638
0.0254196
0.00792521
-0.0188349
-0.0369986
0.00622989
0.0521316
0.0540762
0.0160819
-0.0225511
-0.0430709
-0.0410605
-0.0324748
-0.0284235
-0.00610111
0.00993894
0.00624758
0.00636957
0.0122554
0.00359317
-0.00127205
0.0264238
-0.0161544
0.0264923
0.102356
0.000598627
0.128236
0.152079
0.0556561
0.01596
-0.00358725
-0.0135021
-0.00983512
-0.00121942
0.00148058
-0.00463426
-0.00792835
0.0126417
0.00217362
-0.0205607
-0.0152056
0.000969975
0.00313206
-0.00593435
-0.0270629
-0.0161793
0.0131191
0.0289041
0.0235962
0.00866129
-0.00540546
-0.0134158
-0.0152913
-0.0140972
-0.0157219
-0.0134228
-0.00811712
-0.00212593
0.00264796
0.00405
-0.00113122
0.00156476
0.00139233
-0.00215713
0.0298263
0.00596012
0.0429813
0.0591498
0.0235793
0.00536605
-0.000480496
-0.00153326
-0.000414913
5.19367e-05
-0.000522798
-0.00133806
-0.00303152
-0.00559982
0.00315919
-0.004333
-0.00748108
-0.00132057
0.00117867
-0.00199644
-0.0119799
-0.00903459
0.00496394
0.0131466
0.0122346
0.00703444
0.00287878
-6.82188e-05
-0.00308735
-0.0061657
-0.00824906
-0.0102751
-0.00532584
-0.000919293
0.000797977
0.00119922
-0.00030619
0.000256396
8.47696e-05
-0.00160348
0.00309821
0.00106322
0.0109165
0.0147381
0.00557274
0.000579258
-0.000583677
-0.000623023
-5.32076e-05
-2.27717e-05
1.50151e-05
-4.20628e-05
0.000585381
-0.00105149
-0.000751236
-0.000342013
-0.00125488
0.000668026
0.000228729
-0.000871274
-0.00338707
-0.0024542
0.00179017
0.00366336
0.00301829
0.00212205
0.0013466
0.000684429
-5.4729e-05
-0.00175775
-0.00249599
-0.00181171
-0.000781858
-0.000208301
0.000192139
0.000258053
-0.000152938
0.000138813
0.000312164
-0.00054643
-0.000481948
4.29087e-05
0.0010582
0.00123497
-3.49679e-05
-0.000595611
-0.000455491
-0.000160969
1.72846e-07
1.46618e-05
1.38506e-05
6.72359e-06
3.31324e-05
-4.84153e-06
-0.000363522
-4.45617e-05
-3.04536e-05
0.000908678
0.000241081
-0.000289246
-0.00104783
-0.000863928
6.56136e-06
0.000473161
0.00072358
0.000633458
0.000371841
0.000287759
0.000161379
-0.000198201
-0.000617885
-7.31144e-05
-1.21021e-05
-4.99026e-06
2.63286e-06
2.73829e-06
-5.02949e-06
4.98082e-06
0.000314641
-0.000305894
-0.000344002
-6.13338e-05
-0.000685697
-0.000720715
-0.000252612
-0.000113836
-0.000122262
-8.4118e-06
-2.4894e-08
-1.87741e-07
-1.70411e-07
-1.54035e-06
2.59298e-05
-8.72642e-06
-3.10541e-05
3.67183e-06
-3.06166e-05
0.00056847
0.000224085
-6.13015e-05
-0.000329064
-0.000216889
-0.000102075
1.13495e-05
0.000101286
2.2909e-05
2.42761e-05
1.46755e-05
4.67673e-06
-1.78194e-06
-1.48362e-05
-5.27449e-06
7.46404e-07
1.11149e-06
3.63092e-08
2.14904e-07
1.09367e-07
-6.72878e-06
3.30056e-05
-0.000163094
-0.000140934
-6.45929e-06
-0.000146541
-0.000114405
-9.26347e-05
-1.58233e-05
-1.33129e-06
-1.95293e-08
4.06543e-10
1.99664e-09
1.31841e-09
3.71108e-08
-3.55575e-07
1.56796e-06
2.39233e-08
3.67116e-08
-4.21651e-06
0.000222062
8.83285e-06
-1.62593e-05
-3.09612e-05
-1.42453e-05
-5.17604e-06
-2.0296e-06
-2.33099e-07
1.35654e-07
1.14336e-07
2.14497e-08
9.27938e-09
9.96605e-09
-1.03494e-07
-7.20414e-08
1.45937e-09
4.99351e-09
-6.39501e-10
-3.79274e-09
-1.15371e-10
7.18007e-08
4.40552e-07
-2.62387e-06
-2.37264e-06
-9.28133e-07
-1.94905e-05
-1.46971e-05
-2.7161e-06
-1.4226e-07
-2.82643e-09
-3.1978e-11
-1.3492e-12
-3.44382e-12
-3.67901e-12
-4.7935e-10
3.47435e-09
-7.77363e-09
1.84238e-09
-7.99941e-09
-2.85704e-07
9.00137e-06
-1.09401e-06
-2.923e-06
-1.15995e-06
-1.00114e-07
-1.98926e-08
-6.69526e-09
-1.10693e-09
-2.9195e-11
-2.679e-11
-1.39436e-11
-1.90195e-12
3.68449e-11
-5.22771e-10
-6.75824e-10
-2.43454e-11
1.42645e-11
8.09073e-12
5.32069e-11
-1.20297e-10
1.46566e-10
-7.26144e-09
9.32612e-10
-1.06774e-07
-1.88645e-06
-1.83007e-06
-1.93159e-07
-5.09735e-09
6.53932e-10
2.70825e-11
1.19061e-14
1.0861e-13
-3.19031e-13
-9.19069e-16
3.23013e-12
-2.5383e-11
2.8714e-11
5.93868e-11
-3.68113e-10
-2.90231e-09
1.08518e-07
-5.82586e-09
-3.06374e-08
-1.34513e-08
-1.07895e-09
-7.51888e-11
-4.6355e-12
6.09579e-13
6.6802e-14
1.79137e-14
1.96445e-14