/*--------------------------------*- C++ -*----------------------------------*\
| =========                 |                                                 |
| \\      /  F ield         | OpenFOAM: The Open Source CFD Toolbox           |
|  \\    /   O peration     | Version:  5.0                                   |
|   \\  /    A nd           | Web:      www.OpenFOAM.org                      |
|    \\/     M anipulation  |                                                 |
\*---------------------------------------------------------------------------*/
FoamFile
{
    version     2.0;
    format      ascii;
    class       volScalarField;
    location    "50.4676134421789371";
    object      MDw1;
}
// * * * * * * * * * * * * * * * * * * * * * * * * * * * * * * * * * * * * * //

dimensions      [0 1 -2 1 0 0 0];

internalField   nonuniform List<scalar> 
60000
(
-0.000603868
-0.000365863
-8.08239e-05
0.00012305
0.000290135
0.000443335
0.000417318
0.000134596
-0.000310139
-0.000674839
-0.000777525
-0.000620222
-0.000296183
4.23156e-05
0.000319103
0.000547812
0.000689474
0.000725515
0.000737779
0.000592024
6.55682e-05
-0.000740255
-0.00127429
-0.00121703
-0.000813723
-0.000368625
-9.15954e-05
-3.92525e-05
-9.84515e-05
-4.34119e-05
0.000209239
0.000502733
0.000689239
0.000789189
0.000839436
0.000699495
0.000251905
-0.000270876
-0.000611828
-0.000705528
0.000785708
0.000540364
0.000246821
-4.96262e-05
-0.000326679
-0.000450182
-0.000373319
-0.000131435
0.000208587
0.00049457
0.000627675
0.00052439
0.000235169
-3.69224e-05
-0.00028079
-0.000563146
-0.000832698
-0.00106855
-0.00133955
-0.00134545
-0.000762686
3.69917e-05
0.000644859
0.00113851
0.00142981
0.00161048
0.00197289
0.00254237
0.00248471
0.00104029
-0.000763291
-0.00175068
-0.00207782
-0.00231506
-0.00246883
-0.00176585
-0.000293499
0.000666327
0.000971653
0.000946449
0.000904834
0.00028911
-0.000329863
-0.000403171
-0.000350434
-0.000510849
-0.000460792
-5.05015e-05
0.00060859
0.00123751
0.00149498
0.00124868
0.000548943
-0.000279707
-0.000802637
-0.00103785
-0.00113833
-0.00102273
-0.000775169
-0.000225638
0.000965348
0.00272311
0.00373496
0.00316201
0.00164508
-7.06947e-05
-0.00139202
-0.0019557
-0.00150054
-0.000435493
5.76449e-05
-0.000273283
-0.000617623
-0.000578637
-0.000400318
-0.000434135
-0.000425211
0.000196155
0.000865058
0.00113217
0.000130417
0.000131205
2.72955e-05
-2.41499e-05
5.84318e-05
4.72451e-05
-8.5729e-05
-0.000133459
-6.74973e-05
6.49657e-05
0.000151635
0.000168062
0.000132961
4.11283e-05
-3.25764e-05
-4.30415e-05
-2.34601e-05
1.74805e-05
3.88137e-05
7.7325e-05
0.000182345
0.000436343
0.000703229
0.000608756
0.000244421
-0.000168273
-0.000496239
-0.000726793
-0.00077958
-0.000469819
5.52636e-05
0.000353455
0.000347585
0.000263214
0.000204114
0.000102106
-0.000156371
-0.00032188
-0.000214447
-5.97012e-06
1.67577e-05
3.79294e-05
3.06665e-05
1.13718e-05
6.84346e-06
1.08798e-05
1.74272e-06
-2.11899e-05
-2.64892e-05
-9.59597e-06
1.52463e-05
2.41437e-05
2.07839e-05
1.2343e-05
-1.67492e-06
-1.2714e-05
-1.51854e-05
-7.05246e-06
-2.38682e-05
-5.6792e-05
-5.35547e-06
2.34254e-05
4.38395e-05
5.10905e-05
2.70979e-05
-8.95655e-07
-2.23913e-05
-4.43437e-05
-7.04048e-05
-7.25303e-05
-2.99167e-05
1.89984e-05
3.98229e-05
3.47475e-05
7.43642e-06
-2.67682e-05
-3.76571e-05
-4.51669e-05
-4.65402e-05
-2.28162e-05
-3.23553e-06
-1.24308e-06
-2.91472e-06
-8.86346e-07
9.76429e-07
-4.61926e-07
1.39159e-06
3.11981e-06
-1.65977e-06
-3.60709e-06
-4.59192e-07
2.32138e-06
-2.07343e-06
-4.84811e-06
-1.88178e-07
5.61704e-06
2.81105e-06
-2.17698e-07
8.10248e-07
-4.71336e-05
-2.79402e-05
6.1308e-06
-2.14561e-05
-3.20281e-05
-1.20924e-05
1.89359e-07
6.86506e-07
-5.05804e-08
-1.32922e-06
-3.37654e-06
-1.71715e-06
7.25581e-07
-5.9868e-07
-6.22723e-07
5.14811e-06
1.8167e-07
-4.56934e-06
2.81407e-07
-1.3848e-07
-5.55704e-06
6.66483e-07
-4.92616e-07
-3.51554e-06
-3.7547e-06
-1.70898e-06
-1.68318e-06
-2.29454e-06
1.03144e-06
2.29853e-06
1.21789e-06
-6.50638e-07
2.77609e-08
-1.43568e-06
-3.82363e-06
-9.40608e-07
6.9368e-06
7.57948e-06
7.08938e-07
1.12438e-05
2.12915e-06
-2.59906e-05
6.12239e-06
-9.97506e-06
-1.9011e-05
-4.65319e-06
4.11889e-07
4.02916e-08
-6.56128e-07
-5.43198e-08
6.86915e-07
1.01676e-06
5.80578e-07
-2.33896e-06
-6.39045e-06
-5.24113e-06
5.79089e-07
9.19389e-07
3.45349e-06
6.2535e-06
4.26242e-06
1.38491e-06
6.24919e-07
-2.24334e-07
-9.62377e-07
-6.61227e-07
-6.20466e-07
-1.11298e-06
-7.14526e-07
5.73288e-07
7.71617e-07
4.26871e-08
-3.43436e-07
-2.64023e-07
-8.77168e-07
4.85766e-07
3.66753e-06
3.20416e-06
1.06684e-07
3.70203e-06
1.83325e-05
-2.20946e-06
2.38167e-06
1.28308e-06
-2.79582e-06
5.59419e-07
4.44352e-07
1.10413e-07
2.16691e-08
-2.01643e-07
-2.0044e-08
4.0246e-07
6.78398e-07
-1.45789e-08
-1.39374e-06
-2.38376e-06
-1.30171e-06
9.91137e-08
6.48451e-07
1.89428e-06
2.45307e-06
5.4059e-07
3.43293e-07
1.20086e-07
-9.7319e-08
-6.54681e-08
-4.36419e-08
-1.36929e-07
-2.26494e-07
-4.94341e-08
6.89604e-08
-6.99601e-08
-4.29228e-07
-2.33279e-07
1.00299e-07
6.78595e-07
6.22287e-07
-9.45851e-08
-6.32721e-07
-2.29063e-07
7.42631e-06
7.75214e-06
7.20801e-07
5.58565e-06
2.38582e-06
1.13429e-06
9.23594e-08
-9.67141e-08
3.95412e-08
1.48068e-08
-1.7063e-08
-6.46559e-09
1.82253e-07
2.54538e-07
-1.46203e-09
-2.86763e-07
-3.70477e-07
-1.67728e-07
9.89622e-09
2.06505e-07
5.08457e-07
9.664e-08
9.29294e-08
2.67502e-08
-2.23314e-08
-1.37617e-08
3.66835e-09
-1.72098e-09
-3.80283e-09
-1.57143e-08
-1.25618e-08
-3.0021e-08
-2.12002e-07
-2.23096e-07
2.17545e-07
2.84412e-07
-2.62277e-08
3.99772e-09
-3.22952e-07
-1.17189e-07
8.84922e-07
3.42821e-06
2.25245e-07
4.6418e-06
2.70706e-06
4.62003e-07
-3.70858e-08
-2.07694e-08
-1.26502e-08
2.05629e-09
2.24406e-09
-1.13336e-08
-8.5254e-09
4.36882e-08
5.25329e-08
2.91085e-09
-2.77321e-08
-3.20316e-08
-1.44822e-08
6.12661e-09
4.92009e-08
1.028e-08
1.87717e-08
4.19747e-09
-9.46137e-09
-9.86526e-09
1.13236e-10
-5.43588e-10
6.23859e-10
3.16186e-09
-2.79741e-09
-3.47711e-09
-2.84252e-08
-7.2718e-08
6.26566e-08
4.7091e-08
-2.47874e-08
4.9524e-08
-4.0371e-08
6.32897e-09
-2.47534e-08
3.42471e-07
1.0569e-08
1.97822e-06
1.41971e-06
1.05761e-07
-2.95899e-08
-9.37191e-09
4.27688e-10
-4.08017e-10
9.79864e-11
5.84446e-10
-1.42949e-09
-8.5979e-09
2.36493e-09
5.40631e-09
3.19413e-10
-4.56594e-10
-1.7695e-09
-9.98231e-10
1.54869e-09
1.58012e-10
1.43027e-09
-1.76361e-09
-1.43963e-09
-3.63928e-10
-1.81492e-11
-1.09339e-11
-1.1131e-10
4.26428e-10
1.55613e-10
-9.94207e-10
3.22112e-10
-3.72772e-09
-7.05372e-09
-1.49406e-09
-5.00323e-09
5.76751e-09
6.78343e-09
-8.92385e-09
-3.18926e-09
-1.38728e-07
-4.90774e-08
4.58452e-07
3.57432e-07
1.73035e-08
-9.98165e-09
-3.57362e-09
-4.27975e-11
1.59706e-12
4.38416e-12
2.07283e-11
4.33966e-11
-3.17182e-11
-1.04199e-10
3.12117e-11
-8.43633e-12
-3.92222e-12
-3.34125e-11
-2.84631e-11
-1.28503e-11
2.26372e-11
7.89073e-11
-1.88309e-11
-4.38555e-11
-3.68368e-12
-1.97819e-13
-3.71584e-13
8.30035e-13
3.45655e-12
1.18006e-10
-2.08363e-11
2.59017e-10
6.81287e-11
-7.87488e-09
-2.83108e-09
-1.15756e-09
-5.46069e-10
3.69302e-09
-4.73901e-09
6.81734e-09
-6.41109e-08
-3.82857e-08
6.72364e-08
3.77656e-08
-2.40554e-09
-1.74917e-09
-4.4941e-12
1.37365e-12
3.50273e-14
-1.37092e-13
7.29623e-14
-4.7845e-14
1.13165e-13
5.94149e-13
-1.39466e-13
-9.90329e-14
2.24544e-13
-1.34633e-12
-4.77163e-13
5.17235e-13
1.61022e-14
6.44592e-13
1.37115e-12
2.48668e-13
1.10509e-14
-9.46543e-16
-5.30915e-17
3.10292e-14
-4.23978e-13
-3.52356e-12
1.41156e-10
-1.12779e-10
2.66894e-10
-8.08765e-10
-2.60442e-10
-3.68375e-11
3.03213e-10
4.80568e-10
-1.44405e-10
4.49094e-09
-1.43648e-08
-1.34779e-08
7.36143e-09
4.77081e-10
-2.79703e-10
3.16644e-11
2.67497e-12
9.6368e-14
3.45675e-15
9.58878e-16
-5.80705e-16
-6.01559e-16
-4.99323e-17
-1.85498e-15
3.76861e-16
5.01952e-16
1.38647e-15
-3.81436e-15
-4.24637e-15
3.21244e-14
1.67865e-16
1.34021e-15
2.21431e-14
6.06112e-15
3.0413e-16
1.71191e-18
5.89406e-19
-1.79641e-16
2.53578e-15
-2.07405e-15
1.80382e-13
-9.95355e-12
1.05457e-11
-4.16031e-11
-6.81816e-12
-8.07589e-13
6.7708e-14
6.03079e-12
1.04456e-11
7.35704e-12
7.06879e-11
-5.49589e-11
2.70961e-10
4.31764e-11
1.75719e-12
1.03674e-13
1.54992e-16
9.02152e-17
5.06994e-18
-2.50031e-18
1.25835e-18
3.15376e-18
-5.69358e-19
1.06188e-18
-7.20649e-19
-2.91705e-18
3.43054e-18
-1.21628e-17
-1.58838e-17
1.95108e-16
5.83059e-18
-2.66305e-17
-8.24219e-19
1.76358e-17
1.93109e-18
1.76699e-19
-1.23366e-20
7.46473e-20
-4.58064e-18
3.07005e-17
2.12338e-16
-2.29305e-14
2.26005e-13
-1.24444e-13
-1.05534e-13
-9.25428e-15
-1.32651e-16
-3.46239e-15
2.06898e-14
1.28954e-13
1.31172e-13
-1.15245e-14
8.26315e-13
5.73336e-13
1.10821e-14
-1.43014e-15
-8.68946e-17
-3.51148e-18
-6.09268e-20
2.34505e-21
2.86718e-19
1.70466e-19
5.67708e-20
-4.48131e-19
3.53366e-20
-4.61822e-19
-7.91382e-19
1.27773e-19
-3.06626e-19
3.99557e-19
-1.837e-20
8.8333e-21
-3.83647e-19
-8.12257e-21
-2.3405e-20
1.94484e-20
3.89698e-20
-8.80502e-20
3.32466e-20
2.03211e-20
-5.05742e-20
-2.22039e-17
6.20881e-16
9.88999e-18
-7.55153e-16
-3.23654e-17
5.37067e-18
1.42871e-17
-1.13766e-16
-6.51058e-16
-1.04433e-15
6.01868e-17
2.71988e-16
1.12061e-15
7.98571e-18
-9.40548e-18
-4.05033e-19
-1.56401e-20
-1.80299e-20
-2.08004e-21
1.12343e-19
-2.74269e-20
1.49895e-19
-3.04234e-19
-1.28913e-19
2.88033e-19
1.75953e-19
-8.11159e-20
6.41707e-20
-6.49494e-20
-1.27237e-19
-8.868e-20
-1.54989e-20
-2.20451e-20
2.8063e-20
2.04697e-20
5.06823e-21
-7.65852e-20
3.18689e-20
4.75367e-20
-8.0928e-20
1.45748e-19
4.77641e-19
6.62469e-18
1.54785e-18
6.33649e-19
-2.14427e-20
-3.611e-21
-2.47246e-19
1.74571e-18
1.59555e-18
3.21737e-19
-3.6442e-18
-3.48512e-20
6.70951e-19
2.63004e-20
3.42977e-20
2.25319e-20
-8.88679e-20
1.52241e-20
-1.06936e-20
4.63575e-20
1.61315e-19
5.20052e-19
2.23505e-19
-2.38716e-19
3.19389e-19
-2.24104e-19
9.18115e-20
-5.90729e-21
-7.85263e-20
2.00724e-20
3.80733e-20
1.90546e-20
1.13415e-19
-1.8861e-20
4.05116e-20
3.61126e-20
-2.98186e-20
2.21278e-20
-3.47928e-20
7.39144e-20
-1.07518e-19
1.49411e-19
1.2493e-19
-9.30293e-22
-1.88589e-20
2.03272e-20
-9.13843e-20
7.65592e-20
-1.74157e-20
-6.2122e-20
-1.13441e-19
-1.14041e-20
6.92558e-20
-8.08197e-20
1.74648e-19
6.68657e-20
1.60095e-20
4.58143e-20
-2.90886e-20
-3.1371e-20
-1.26032e-19
-2.25094e-19
5.18712e-21
-1.69112e-20
-1.20429e-19
-4.3641e-20
-3.55311e-20
4.33155e-20
7.88298e-20
-6.36998e-20
-1.25265e-20
5.31554e-20
9.26072e-20
-1.02532e-19
1.1377e-21
-6.29603e-20
-3.82292e-20
3.008e-20
8.48714e-21
9.65537e-20
1.57872e-20
-9.97427e-20
2.96713e-20
1.40725e-19
3.22991e-20
2.89224e-20
1.3547e-19
3.37208e-20
1.3707e-19
1.44722e-19
6.75992e-20
4.35978e-21
-8.66132e-20
1.06981e-19
-6.1725e-21
-7.12696e-20
1.79764e-20
1.22945e-19
6.84627e-20
-1.16551e-19
9.90732e-20
-1.0645e-19
-2.30668e-19
1.42396e-19
-1.60829e-19
-3.71086e-20
-1.51987e-20
2.06441e-19
-6.68543e-20
-3.14049e-20
-5.90259e-20
3.41863e-20
-1.48064e-21
2.15876e-20
8.24194e-21
-1.56836e-20
-6.67748e-20
6.30858e-20
-2.58177e-20
-1.33978e-19
7.10291e-20
7.43476e-20
1.51688e-19
5.32391e-20
3.62299e-20
-6.70643e-20
3.942e-21
-2.77324e-20
4.29709e-20
-3.1757e-20
7.66613e-20
3.20708e-20
2.24561e-20
2.83714e-20
-4.38783e-20
7.0739e-21
-4.73193e-20
2.9947e-20
3.90588e-20
8.28717e-21
-3.73754e-20
1.61242e-19
2.56853e-19
-1.92992e-19
9.12596e-20
-1.47345e-19
1.18938e-19
4.37899e-20
-3.61559e-20
5.61189e-20
2.24915e-20
-1.52516e-20
-7.7562e-21
5.26161e-20
-6.13136e-21
4.81593e-20
2.80068e-20
-9.0282e-21
1.84866e-20
-2.49259e-20
-3.91605e-20
-8.32086e-20
-2.49516e-20
5.67134e-20
1.94468e-20
-1.20762e-19
-1.98059e-20
1.45156e-19
-4.2982e-20
1.02502e-19
-1.80526e-20
-7.72257e-20
-1.87746e-20
4.81354e-22
-2.5227e-20
-2.87577e-20
-2.38412e-20
-6.94389e-20
2.12808e-20
1.53832e-19
5.14276e-20
2.45328e-21
5.2556e-20
5.14487e-20
-6.2059e-20
5.17198e-20
1.16668e-19
9.88256e-21
5.2591e-21
2.70485e-22
-2.27095e-20
1.47419e-20
5.48283e-20
1.9085e-20
5.51949e-21
3.63931e-20
1.65776e-20
-1.3419e-20
-5.48905e-20
1.41823e-20
5.43943e-21
1.54396e-20
6.67066e-20
2.15267e-20
-1.30182e-20
-1.29978e-19
-3.64917e-20
-9.30082e-20
1.16054e-20
1.19844e-19
-3.51833e-20
-2.1345e-20
-3.17787e-20
-5.77842e-20
-5.8949e-21
4.80982e-21
1.32858e-20
-2.03335e-20
2.22694e-20
-3.4101e-20
1.80794e-20
-5.96139e-20
1.48215e-20
-7.5579e-21
-1.3124e-20
3.2539e-21
-1.7181e-20
-5.28098e-21
-1.08326e-20
2.99676e-21
6.43591e-20
-8.16925e-21
1.05082e-20
5.39245e-21
4.36236e-21
2.85498e-21
4.73051e-20
-4.19655e-20
4.13456e-20
2.65461e-20
-5.63625e-20
-6.06039e-20
1.01238e-20
-3.31111e-20
7.80621e-21
1.36839e-19
2.60818e-20
1.0174e-20
1.72736e-20
-1.23928e-20
5.47592e-20
6.10014e-20
-5.35591e-20
-7.55562e-20
6.74664e-20
4.22722e-20
-1.05068e-20
2.11072e-20
-1.56611e-20
5.36302e-20
5.20055e-20
1.76359e-20
2.49015e-20
4.51814e-21
-2.87079e-20
1.05583e-20
1.345e-20
-4.11142e-21
-6.18531e-21
-2.47657e-20
-8.34478e-21
3.46606e-20
1.96043e-20
-2.30369e-20
-3.22121e-20
-5.67893e-20
-6.91954e-20
-2.73491e-20
5.15172e-20
9.54409e-20
4.4486e-20
-3.76947e-20
-3.26615e-20
-2.42043e-20
-6.99299e-20
7.06664e-20
-3.27809e-20
-2.19278e-20
-1.36458e-20
-1.25835e-20
5.14349e-22
6.08824e-21
1.77835e-21
-2.55557e-20
1.01604e-20
3.3741e-20
-2.36872e-20
-2.2395e-20
1.6042e-20
1.6537e-21
5.06973e-21
7.87572e-20
6.25519e-20
3.19727e-21
-3.64454e-20
2.97109e-20
1.37958e-20
-6.59946e-20
-0.000312573
-0.000198258
-6.24617e-05
-2.38113e-05
-3.20222e-05
1.31841e-05
0.000130956
0.000152531
-2.84064e-05
-0.00029872
-0.000465878
-0.000463858
-0.000353404
-0.000213222
-0.000108174
-0.000121278
-0.000261299
-0.000303003
0.000100302
0.000947521
0.00140492
0.000778942
-0.000356946
-0.00118331
-0.00132912
-0.00106463
-0.000703439
-0.000428334
-0.000230423
-3.00302e-05
0.000184732
0.000374615
0.00050521
0.000545015
0.000457035
0.000316107
0.000228956
9.36141e-05
-9.95259e-05
-0.000269232
0.000195441
0.000158351
3.71974e-05
-5.65901e-05
-0.000106228
-0.000182156
-0.000250135
-4.64306e-05
0.000293621
0.000472236
0.000483399
0.000483135
0.000530862
0.000601025
0.000693896
0.00089509
0.00107179
0.000482382
-0.00153941
-0.00369462
-0.00317423
-0.000928302
0.000517501
0.00134115
0.00213121
0.00302497
0.0036654
0.00362659
0.00267909
0.00119457
-0.000199874
-0.00125287
-0.0018308
-0.00172071
-0.00115251
-0.000795923
-0.000459298
-0.000131896
7.80015e-06
0.000113219
0.000390963
0.000222933
0.000129458
0.000202544
0.000292625
0.000267436
-3.29378e-05
-0.000430158
-0.000304043
0.000287011
0.000716496
0.000677671
0.000329812
-0.000116752
-0.000481036
-0.000553049
-6.71416e-05
0.000837418
0.00106672
-0.000842378
-0.0030622
-0.00184786
0.00108577
0.00271891
0.00245229
0.000983103
-0.000625225
-0.00141115
-0.00123942
-0.000704273
-0.000315679
-0.000151671
-0.000268172
-0.000607425
-0.000586223
-6.86845e-05
-4.37802e-05
4.72864e-05
0.000324428
0.0004375
7.23607e-05
4.7629e-05
8.46571e-06
1.32949e-05
4.96511e-05
7.12645e-05
4.50809e-05
-9.67351e-05
-0.000201933
-0.000136381
-5.35768e-06
3.03744e-05
-4.30818e-05
-0.000168459
-0.000297817
-0.000390862
-0.000341527
-6.26799e-06
0.000534349
0.00066618
-0.000134208
-0.000550571
-8.27731e-05
0.000422642
0.000432517
6.14572e-06
-0.000568838
-0.000951524
-0.000963281
-0.000681799
-0.000355545
-0.000122107
-2.25131e-07
-3.89958e-05
-0.000167321
-8.97391e-05
2.06271e-05
-7.07813e-05
-3.79397e-05
4.82802e-05
4.28347e-06
5.94673e-06
2.56257e-06
-1.99857e-06
-1.84737e-06
1.80192e-06
6.07628e-06
-5.81868e-06
-2.97132e-05
-2.44161e-05
-1.36893e-05
-5.79048e-06
-3.46522e-06
-1.02751e-05
-2.155e-05
-3.19135e-05
-3.13399e-05
-7.50094e-06
5.12166e-05
0.00013146
2.88104e-06
-0.00012771
-4.03594e-05
2.49075e-05
5.41991e-05
3.66146e-05
-1.65857e-05
-6.89834e-05
-9.15495e-05
-7.7898e-05
-4.82174e-05
-2.47434e-05
-1.23175e-05
-1.42884e-05
-4.6761e-05
-6.81609e-05
-2.97506e-05
-2.0536e-05
-2.41941e-05
-8.43567e-06
-2.75068e-06
-3.63487e-06
-1.50425e-06
9.43896e-07
2.33044e-09
-1.5661e-06
-3.23517e-07
2.23773e-06
-6.8033e-06
-5.38291e-06
1.20338e-06
-6.63229e-06
-8.06321e-06
3.1446e-07
8.82701e-06
8.6522e-06
2.09957e-06
-9.25343e-08
-1.7841e-08
2.61029e-05
3.11834e-05
-3.51795e-05
2.67966e-06
-9.84729e-06
-2.2664e-05
-5.96223e-06
1.16274e-06
-1.75404e-07
-1.51647e-06
-1.28302e-06
-6.41807e-07
-1.67351e-07
1.72279e-07
1.44027e-06
2.4583e-06
-1.03662e-05
-7.82889e-06
8.61244e-07
1.5129e-06
-2.91657e-06
-8.92955e-07
-3.47626e-06
-3.23749e-06
-3.33218e-07
6.31575e-07
-3.24168e-07
-1.06234e-06
1.12142e-06
1.16259e-06
-4.45601e-06
3.82054e-06
3.91262e-06
-1.99278e-06
5.51177e-07
5.71485e-06
4.22405e-06
4.23527e-09
-7.77971e-07
-2.48282e-07
1.66811e-06
1.91217e-05
-2.38379e-06
3.57533e-06
-1.10597e-06
-1.11898e-05
-3.13791e-06
7.01281e-08
3.86161e-07
1.03728e-06
1.27467e-06
4.03114e-07
-7.91346e-07
-1.39432e-06
-2.74629e-06
-7.04878e-07
3.61697e-07
-2.78511e-06
2.40813e-06
6.05292e-06
3.70906e-06
1.33523e-06
-1.21357e-06
-2.1919e-06
-5.45619e-07
4.7576e-07
2.76825e-07
-2.74963e-07
-9.56182e-08
2.71793e-06
-1.57874e-07
-1.77522e-07
4.64587e-06
3.28396e-06
1.68194e-06
1.06181e-06
-5.40297e-07
-4.01446e-07
-3.0542e-07
1.02052e-07
4.01124e-07
4.87897e-06
6.18002e-06
1.99896e-06
1.29114e-06
-6.54934e-07
4.58964e-07
3.24107e-07
4.14066e-08
1.27315e-07
3.02388e-07
4.37661e-07
2.44944e-07
3.17149e-07
-3.92976e-07
-1.33933e-06
4.17853e-07
-4.58142e-07
1.08393e-07
2.99374e-06
4.1987e-06
1.34811e-06
1.83012e-07
-6.79946e-07
-2.18135e-07
2.30936e-07
1.60104e-07
2.21093e-08
-1.61306e-07
7.84536e-07
2.12416e-06
-3.75975e-07
1.47764e-06
2.65989e-06
1.45426e-06
-2.40895e-07
-7.78665e-07
-1.52319e-07
-3.98635e-08
-7.20591e-08
5.81221e-07
1.03558e-06
4.42168e-06
1.44244e-06
1.15849e-06
1.05125e-06
7.12894e-07
1.92396e-07
1.72962e-08
6.30015e-09
2.86112e-09
1.2818e-08
9.45861e-09
1.3395e-07
3.38356e-07
-2.92352e-07
-1.81843e-07
2.9822e-07
-1.48152e-07
5.33422e-07
1.58987e-06
5.01815e-07
3.56505e-07
-1.72166e-08
-7.32338e-08
2.06938e-08
3.82755e-08
5.6276e-08
3.97028e-08
1.48243e-08
8.56027e-07
5.93171e-07
-2.15805e-09
9.40275e-07
6.94633e-07
-2.15539e-08
-1.77439e-07
-2.71734e-08
-3.14912e-08
-6.30726e-08
1.95563e-07
2.97368e-07
1.89879e-06
5.84303e-07
7.59824e-07
8.44274e-07
3.91358e-07
6.95971e-08
8.56616e-09
1.11249e-09
-2.77006e-12
-7.07568e-11
-4.42725e-09
-1.85685e-08
5.12233e-08
1.1209e-08
-8.29694e-08
7.09651e-08
4.36641e-08
8.64945e-09
2.59e-07
8.50604e-08
1.45627e-07
3.57962e-08
-5.25081e-08
-3.38003e-08
2.66533e-09
1.25928e-08
4.12521e-08
8.96877e-09
6.6434e-08
3.04322e-07
-9.93221e-08
1.66846e-08
2.00455e-07
8.24714e-08
2.0713e-08
1.35421e-08
-1.35273e-08
-2.48701e-08
3.16551e-08
7.55889e-08
5.13851e-07
1.21936e-07
4.21789e-07
4.87083e-07
1.21475e-07
9.2382e-09
-2.23016e-09
-1.18265e-10
2.59559e-12
2.95981e-11
3.00689e-10
-1.15688e-09
-4.27494e-10
6.09048e-09
-9.64864e-09
1.15913e-10
2.48267e-08
2.23797e-09
8.57757e-09
6.60185e-09
2.66613e-08
4.08505e-09
-1.84723e-08
-1.08635e-08
-7.00181e-10
2.3697e-09
1.64876e-09
1.26618e-08
-9.30126e-09
3.34933e-08
-6.74783e-09
-7.00665e-08
1.75836e-08
3.79659e-08
1.71324e-08
7.98149e-09
4.9244e-10
-1.50258e-09
3.13719e-09
2.06785e-08
6.42128e-08
5.70395e-09
1.60234e-07
1.46734e-07
1.88054e-08
-4.64861e-09
-3.89978e-10
-1.02661e-11
4.04633e-13
-2.60249e-13
1.44625e-11
5.2819e-11
-1.42796e-10
3.89254e-10
-5.33394e-11
-2.86881e-09
1.50626e-09
4.51818e-09
-1.49863e-09
1.95453e-11
7.504e-09
6.17878e-09
-1.1994e-09
-5.27491e-10
-5.82366e-11
1.16885e-11
8.3765e-11
3.45508e-10
-2.00148e-10
4.07516e-10
8.48025e-10
-6.08278e-09
-1.43603e-09
8.8671e-09
4.59797e-10
2.2107e-10
-9.63504e-11
3.79265e-09
-2.15988e-09
5.54181e-09
-8.59839e-09
-4.04444e-09
2.5662e-08
1.60045e-08
-2.39224e-09
-2.64524e-10
-2.06308e-12
1.91937e-13
4.00869e-15
-8.35621e-15
1.03124e-14
-2.46208e-13
1.48006e-12
-5.19444e-12
1.48537e-11
1.23327e-12
1.5141e-11
2.17842e-10
2.73781e-10
-3.49315e-11
1.21749e-10
1.87642e-10
2.93155e-11
1.2586e-12
7.33766e-14
6.17001e-15
-1.0725e-13
9.00288e-12
1.45667e-11
-1.94823e-12
-7.83886e-11
-5.09367e-10
-1.32818e-10
1.9109e-11
5.48366e-12
1.45803e-12
-3.71917e-11
2.37707e-11
5.73675e-12
-2.08842e-10
-7.49292e-09
-3.59172e-10
-1.23714e-10
-2.70641e-09
-1.14741e-10
3.10216e-12
1.9172e-13
2.1179e-15
1.99233e-16
2.82001e-16
-1.954e-15
-6.01535e-15
-2.98299e-15
4.23908e-14
-9.64651e-14
2.47324e-15
-2.76909e-14
1.32784e-12
-2.30569e-11
-3.95732e-13
3.71997e-13
2.1282e-12
6.1419e-13
3.07842e-14
5.10912e-16
1.98493e-16
-3.82286e-15
-1.13099e-14
-6.21534e-14
-1.36991e-14
7.9416e-14
-1.9814e-12
-1.93884e-12
-2.16195e-13
-3.4576e-14
-3.14407e-14
2.77044e-13
-6.62606e-14
-2.17219e-12
6.10117e-11
-2.88134e-11
9.76754e-11
-4.33578e-12
-1.58993e-11
1.9034e-14
-6.57794e-14
-7.8637e-15
-2.6135e-16
9.63689e-19
-1.99081e-18
1.55552e-17
1.10418e-16
-9.70375e-17
-1.28093e-16
3.33508e-16
1.26838e-16
-5.64036e-16
3.61277e-15
-6.43358e-14
-1.84508e-15
-1.73693e-15
8.97318e-15
2.77114e-15
1.29507e-16
3.61223e-18
1.33597e-18
1.55526e-17
-9.5538e-17
1.17837e-16
6.5528e-17
-2.15989e-16
-2.83039e-15
-2.0738e-14
-4.20971e-15
-3.63926e-16
5.06507e-17
8.51261e-16
-3.98102e-15
1.42734e-14
-1.38808e-13
-1.20986e-14
4.35123e-13
5.8674e-13
-2.88075e-13
-6.52975e-14
-5.01084e-15
-1.72926e-16
-2.49096e-18
5.16229e-20
2.10642e-19
-5.23461e-20
-5.84094e-19
4.631e-19
-4.62072e-19
-4.64265e-19
6.88608e-19
-7.81655e-18
2.61689e-17
-1.94344e-16
-5.88023e-18
-3.66691e-17
-8.15433e-17
-5.91247e-18
3.10916e-19
1.95421e-20
-7.69638e-21
8.85618e-20
-2.37537e-20
-2.49939e-20
-1.59984e-20
-4.37622e-18
7.70334e-18
-1.61511e-16
-3.39662e-17
-7.75503e-19
1.04231e-19
-4.51237e-18
1.69008e-17
3.09995e-17
-2.09425e-16
-6.94742e-18
5.49218e-16
-2.26939e-15
-6.38268e-15
-8.93928e-16
-3.524e-17
-2.61053e-19
1.27272e-20
-2.05942e-21
1.59213e-20
1.29497e-21
1.78975e-19
3.60872e-19
9.33536e-20
-5.20209e-19
-1.12881e-19
-9.78297e-20
4.51529e-19
-1.36263e-18
-1.9274e-19
-5.30423e-20
-4.62913e-19
-8.22546e-20
-1.12356e-20
-2.1017e-20
1.3844e-20
-1.1925e-20
-1.42194e-20
1.08969e-20
-5.13475e-21
-2.13453e-20
8.23535e-20
-5.79523e-19
-1.21932e-19
-1.22342e-19
2.66324e-19
-3.26307e-20
1.55592e-20
-1.48379e-19
4.46778e-19
-1.06031e-20
5.72666e-19
-6.29908e-18
-1.14283e-17
-7.36743e-19
1.79333e-20
-7.1332e-22
-2.31734e-20
-2.39078e-20
1.73607e-20
-1.07642e-20
-2.36668e-20
-2.21673e-19
1.83201e-19
-2.42413e-19
-4.27632e-20
-5.74593e-20
2.86999e-19
2.19438e-19
8.54129e-20
-1.44377e-20
-1.47079e-20
-2.66023e-20
-4.90916e-20
8.52611e-21
4.84367e-20
1.83791e-20
-6.6933e-20
5.84551e-20
3.261e-20
8.66709e-20
-9.25109e-20
-1.81031e-20
-5.73307e-20
1.23036e-19
5.10835e-20
-8.76241e-21
-7.81802e-20
3.24288e-20
1.41452e-19
-1.00334e-19
-4.10754e-20
5.06745e-20
1.29846e-19
-7.14297e-20
-1.30155e-19
-8.12093e-20
-7.41307e-20
-3.45892e-20
-1.36355e-21
1.08864e-19
-3.83741e-20
-1.18259e-19
1.65017e-20
3.71718e-19
-8.82584e-20
-2.2428e-20
-1.4359e-19
3.42458e-20
1.07732e-19
9.74912e-20
3.08086e-20
4.2526e-20
-3.64008e-20
-3.70296e-20
-5.55961e-20
2.26696e-21
-8.7952e-20
-2.19385e-20
-2.45103e-20
3.65067e-20
8.84182e-20
-2.53911e-20
-2.25644e-19
2.4898e-20
2.16999e-20
-6.29034e-20
1.19853e-20
8.37222e-20
6.07611e-21
3.17715e-20
2.52635e-20
-2.00744e-20
6.67504e-20
7.38803e-20
4.95895e-20
-1.1035e-20
6.44055e-20
-2.36668e-20
3.00328e-20
-3.80577e-20
4.12532e-20
-3.14892e-19
1.63608e-19
2.41628e-19
1.06784e-19
-5.51986e-20
-9.46351e-21
2.02693e-20
8.33498e-20
-2.45026e-20
-1.09831e-20
-4.43386e-20
1.8937e-20
1.15818e-20
1.61998e-20
6.16259e-21
-5.8014e-20
-2.48072e-20
-2.70027e-20
3.96724e-20
4.49489e-20
-3.79719e-20
6.74613e-20
-6.10137e-21
-1.21214e-20
-1.5103e-20
-4.47306e-20
4.53524e-21
4.63238e-20
2.78655e-20
-6.07431e-21
-9.4946e-21
4.12663e-20
-1.57821e-20
-4.254e-20
5.10247e-20
3.68832e-20
6.72967e-20
2.48954e-20
2.17791e-19
3.7986e-20
4.5279e-20
-3.89613e-20
-2.78537e-20
4.45911e-20
1.37993e-19
-8.57091e-20
-2.10754e-19
1.58582e-20
-1.27563e-20
6.67636e-20
-6.279e-20
3.15717e-21
2.68604e-20
2.71458e-20
-2.77963e-21
2.94888e-20
8.16092e-24
2.79607e-20
1.81833e-20
-3.54914e-20
4.67348e-21
4.16712e-20
5.14404e-20
-8.73848e-20
7.38891e-20
4.7653e-20
-1.03166e-19
1.60169e-20
-4.3999e-20
3.0295e-20
-3.91298e-20
-2.77533e-20
2.84096e-20
-8.96482e-20
1.07235e-19
1.6663e-20
4.70873e-20
-4.91546e-20
1.58436e-19
-1.2001e-20
5.05297e-20
7.18167e-20
1.59309e-19
-2.49484e-19
6.88047e-20
6.04723e-20
2.05356e-20
5.89151e-20
8.0631e-20
-2.83642e-20
-3.8902e-20
-7.00506e-20
6.79941e-20
-2.04785e-21
-2.72756e-20
-1.77732e-20
-9.45118e-22
5.11004e-23
1.59667e-20
-2.34403e-20
1.41041e-21
3.93997e-20
-6.25913e-20
-3.53474e-20
-3.914e-20
1.04687e-19
-8.2112e-20
-2.09732e-20
9.38873e-20
-7.63356e-20
2.72116e-20
5.95398e-21
4.3809e-20
5.60676e-20
4.1235e-20
-5.33538e-20
-1.13705e-19
-4.24475e-20
-5.20908e-20
-1.38041e-21
-2.66449e-20
-5.04388e-23
4.11669e-20
2.8275e-20
-8.36118e-20
1.07085e-19
2.01604e-20
8.34826e-23
4.40205e-20
-2.69818e-20
-4.2412e-21
1.29583e-20
-3.71623e-21
-6.19715e-20
-1.41772e-21
1.70901e-20
7.56813e-20
-7.57275e-20
-1.20009e-20
3.85705e-21
1.30785e-20
1.17686e-20
-9.5159e-21
4.40209e-20
-7.81401e-20
4.90502e-20
5.34024e-21
-7.74091e-21
4.69177e-20
-2.97371e-20
3.17136e-20
7.86984e-20
-1.85642e-20
-4.16789e-20
-3.43825e-20
-1.99059e-20
-1.74859e-20
9.50266e-21
-2.73337e-20
7.92966e-21
1.83976e-21
3.01484e-20
-3.64877e-20
4.51913e-20
1.9214e-20
1.08691e-20
6.27682e-21
-2.1894e-20
9.45852e-21
2.58341e-20
4.11824e-20
-2.57416e-20
-6.13528e-20
1.89235e-20
1.81352e-20
-1.09973e-20
-2.96439e-21
-4.1621e-20
1.11288e-19
-1.13794e-21
-2.43981e-20
1.56558e-20
6.34459e-21
8.95899e-21
9.37009e-20
-2.13352e-20
-2.47631e-20
5.63631e-23
7.47586e-21
-1.18861e-20
-1.2106e-20
4.07865e-20
-9.06833e-21
-1.90724e-20
-1.09316e-20
-2.63133e-20
1.2404e-21
2.36643e-20
-1.94791e-21
-2.17319e-20
-7.35013e-20
1.10698e-19
-1.54139e-20
-4.34836e-20
1.52433e-20
-1.70359e-20
-2.63998e-20
0.000144406
0.000239284
0.000199474
-6.66321e-07
-0.000204782
-0.000274167
-0.000196363
-5.38681e-05
6.42307e-05
7.62465e-05
-5.91281e-05
-0.000252009
-0.000399306
-0.000483597
-0.00055235
-0.000647515
-0.000746171
-0.000740773
-0.000483764
9.80121e-05
0.000835024
0.00106955
0.000329994
-0.000647735
-0.00116926
-0.00114441
-0.000803486
-0.000422661
-0.000162253
-3.42465e-05
1.20977e-05
2.84323e-05
3.59845e-05
-2.79112e-05
-0.000211394
-0.000284191
1.13064e-05
0.000326487
0.000301647
0.000146521
3.43164e-05
-0.000102269
-0.000186458
-0.000133816
1.62307e-05
0.000179938
0.000292226
0.000313135
0.000277214
0.000291672
0.000442476
0.000664811
0.00092232
0.00125416
0.00171972
0.00231
0.00283747
0.00287738
0.00194593
-0.000212091
-0.00245928
-0.0019231
0.000120573
0.00102371
0.00134632
0.00154268
0.00153929
0.00130623
0.00101556
0.000819314
0.00074384
0.00077624
0.00102086
0.00168738
0.00228606
0.00159943
0.000198035
-0.000266781
-0.000105105
4.77228e-05
-0.000357883
-0.000364638
-0.000127437
0.000264027
0.000577616
0.000593582
0.000223477
-0.000290525
-0.000709338
-0.000790192
-0.000456155
2.28998e-05
0.000326235
0.000379286
0.000276669
0.000164642
0.000137834
0.000143886
-2.73299e-05
-0.000505929
-0.00162934
-0.00281448
-0.00113959
0.00149553
0.00252065
0.00230187
0.00140415
0.000458459
-0.000131722
-0.000371797
-0.000436691
-0.000567217
-0.00100737
-0.00159963
-0.00156167
-0.000730071
-0.000488969
-0.000921193
-0.000704369
-0.000385772
-4.09808e-05
-4.37349e-05
-2.6211e-05
3.43279e-05
8.06869e-05
6.54949e-05
-7.64072e-06
-9.55875e-05
-0.000169376
-0.000229815
-0.000250278
-0.000225746
-0.000218794
-0.000270427
-0.000360228
-0.000430271
-0.000421888
-0.000298942
-9.86822e-05
7.3818e-05
9.44786e-05
-0.00041068
-0.00076478
-0.000257524
0.000200389
0.000220628
-7.09614e-05
-0.000399531
-0.000570499
-0.000594607
-0.000553456
-0.000498771
-0.000493112
-0.000617236
-0.000741691
-0.000496378
-6.01516e-05
-2.7693e-05
-0.000153263
-9.40214e-05
-2.02942e-06
-2.17407e-06
-5.37373e-06
-3.86488e-06
2.93951e-06
6.85016e-06
3.26162e-06
-5.20915e-06
-1.30021e-05
-1.90519e-05
-2.41056e-05
-2.53277e-05
-2.49188e-05
-2.56718e-05
-2.61784e-05
-2.39544e-05
-1.76436e-05
-6.25263e-06
1.63668e-05
5.31452e-05
5.58532e-05
-4.83863e-05
-0.00012796
-6.92908e-05
8.74258e-06
4.79977e-05
2.16735e-05
-3.68235e-05
-7.03316e-05
-7.17711e-05
-6.47722e-05
-6.11037e-05
-5.86033e-05
-6.55517e-05
-8.37643e-05
-7.22517e-05
-2.27107e-05
1.94158e-06
-1.0692e-05
-1.41144e-05
-6.17967e-07
8.77235e-07
1.26806e-06
-9.84382e-07
-3.23512e-06
-2.17355e-06
4.92625e-07
2.5082e-06
2.22188e-06
6.63511e-07
4.95476e-07
8.42649e-07
5.86089e-07
5.50005e-07
-5.47063e-08
-6.0585e-07
-2.50783e-07
-4.20991e-07
-1.39261e-06
7.32701e-06
2.80913e-05
9.56342e-06
-1.7579e-05
6.26164e-06
-4.84942e-06
-4.35818e-06
3.57554e-06
2.23403e-06
3.65145e-07
1.32324e-06
1.83455e-06
4.24655e-07
-7.36103e-07
-1.67195e-06
-5.22013e-06
-6.3049e-06
-1.16956e-06
-9.56452e-07
9.70591e-08
-3.42448e-06
-6.87858e-07
1.06233e-06
2.04649e-06
1.72021e-06
-9.26002e-07
-2.45986e-06
-1.68165e-06
3.33355e-07
2.15474e-06
2.36093e-06
2.78336e-06
4.49609e-06
4.78354e-06
3.12199e-06
1.41039e-06
3.70834e-07
-1.33937e-07
-1.25645e-07
-8.05585e-07
-1.40944e-06
7.06567e-06
1.09033e-05
-2.41901e-06
6.52506e-06
1.37345e-06
-5.50911e-06
-2.0876e-06
-2.78115e-07
-9.59722e-08
-1.85204e-07
-4.73908e-07
-7.17103e-07
-2.1662e-07
6.70155e-07
5.22986e-07
-8.74172e-07
7.52418e-07
7.28846e-07
1.97356e-08
-2.75728e-07
-1.70299e-07
5.67986e-07
1.31969e-06
1.55198e-06
6.77471e-07
-7.07087e-07
-1.33167e-06
-1.1299e-06
-2.70052e-07
5.23216e-07
8.98987e-07
1.67583e-06
2.27404e-06
1.64846e-06
7.93194e-07
4.12859e-07
1.01397e-07
2.01826e-08
1.17904e-08
-5.04962e-07
1.45923e-07
3.73249e-06
1.37417e-06
9.71675e-07
1.31065e-06
-4.62232e-07
-3.74627e-07
8.41286e-09
-7.40409e-08
-3.06143e-07
-4.29247e-07
-4.63719e-07
-1.2202e-07
4.04782e-07
6.88688e-07
3.87182e-07
-1.00103e-07
5.62691e-07
2.46908e-07
7.69465e-08
3.66911e-08
1.23779e-07
6.82315e-07
6.59242e-07
4.34947e-07
-6.05673e-08
-5.23507e-07
-7.5878e-07
-7.02284e-07
-3.21284e-07
6.04044e-08
5.2017e-07
9.90291e-07
8.87529e-07
4.36477e-07
1.56e-07
4.74179e-08
3.35413e-08
5.38772e-09
-4.61371e-08
-1.1788e-07
7.85003e-07
1.32024e-06
2.53116e-07
5.64354e-07
6.3763e-07
3.24525e-07
1.73284e-07
8.93853e-08
2.99151e-08
5.94759e-09
3.15941e-09
2.58091e-08
5.95707e-08
9.47421e-08
3.02289e-07
1.04134e-07
4.37935e-08
1.19869e-07