/*--------------------------------*- C++ -*----------------------------------*\
| =========                 |                                                 |
| \\      /  F ield         | OpenFOAM: The Open Source CFD Toolbox           |
|  \\    /   O peration     | Version:  5.0                                   |
|   \\  /    A nd           | Web:      www.OpenFOAM.org                      |
|    \\/     M anipulation  |                                                 |
\*---------------------------------------------------------------------------*/
FoamFile
{
    version     2.0;
    format      ascii;
    class       volScalarField;
    location    "50.4676134421789371";
    object      MDw2;
}
// * * * * * * * * * * * * * * * * * * * * * * * * * * * * * * * * * * * * * //

dimensions      [0 1 -2 1 0 0 0];

internalField   nonuniform List<scalar> 
60000
(
-0.00213991
-0.00211265
-0.00145413
-0.000409221
0.000309814
0.000601314
0.000857978
0.000943958
0.000672242
-3.21539e-05
-0.000783595
-0.00106196
-0.000922005
-0.000729778
-0.000414035
0.000234101
0.00127873
0.00253953
0.00407816
0.00485572
0.00392507
0.00182039
-0.00080013
-0.00328687
-0.00458761
-0.00513095
-0.00599873
-0.00715558
-0.00630149
-0.00215184
0.00227105
0.00456689
0.00559794
0.00669017
0.00738841
0.00534561
0.001416
-0.000801648
-0.00149367
-0.0018712
0.0049344
0.00376462
0.00171776
-0.000213707
-0.00158342
-0.00246183
-0.00252802
-0.00142121
0.000686354
0.0029865
0.00432752
0.00402159
0.00235687
0.00044312
-0.00121697
-0.00287259
-0.00450848
-0.00578104
-0.00701602
-0.00676896
-0.00328922
0.00261892
0.0077875
0.00985283
0.00876203
0.00635048
0.00504117
0.00551204
0.00531199
0.00187095
-0.00300553
-0.00638643
-0.00821726
-0.00974393
-0.0107825
-0.00850241
-0.00273284
0.00183163
0.00406815
0.00502667
0.000173898
0.000188624
2.91787e-05
-7.75689e-07
0.000225329
0.00028192
5.36291e-05
-0.000155498
-0.000206908
-1.73055e-05
0.000235957
0.000346363
0.000246254
6.2022e-05
1.41116e-05
8.57874e-05
8.02199e-05
-3.60101e-06
-9.02789e-05
-8.23495e-05
0.000157513
0.00098184
0.00194833
0.00197533
0.00112477
6.73828e-05
-0.000719157
-0.00109757
-0.00101694
-0.000623737
-0.000251268
-0.000119033
-0.000172863
-0.000240345
-0.000227357
-0.000160139
-0.000303752
-0.000480019
-0.000379743
-6.76393e-05
-0.00114872
-0.000692796
-9.91386e-05
0.000283785
0.000566854
0.000945403
0.000885255
0.000282084
-0.000496837
-0.00105587
-0.00117855
-0.00101445
-0.000570931
4.66011e-05
0.000577014
0.00098237
0.00127459
0.00139203
0.00140926
0.00106211
-4.60853e-06
-0.00150839
-0.00242253
-0.00236148
-0.0016737
-0.000722831
-3.40197e-05
0.000111197
-6.41102e-05
-8.39519e-05
0.000358735
0.00105213
0.00150381
0.00160473
0.00153111
0.00129055
0.000629938
-0.000402497
-0.00114366
-0.00133408
-0.000469828
-0.000338791
-8.91333e-05
0.000100822
0.000161561
0.000247986
0.000329445
0.000199298
-7.72383e-05
-0.000330449
-0.000412957
-0.000348098
-0.000212179
2.84877e-06
0.00021651
0.000355009
0.000439269
0.000468378
0.000480891
0.000368912
-1.12995e-06
-0.000651633
-0.00118575
-0.00116227
-0.000687005
-0.000154518
0.000169227
0.000277652
0.000237002
0.000172785
0.000198507
0.000333368
0.000492309
0.000597922
0.000600983
0.000469198
0.000263301
2.48016e-06
-0.000267062
-0.000439813
-8.12608e-05
-8.12529e-05
-4.26418e-05
1.47057e-06
1.71068e-05
2.51318e-05
4.55617e-05
4.97648e-05
1.09044e-05
-4.16714e-05
-6.95764e-05
-5.80064e-05
-3.86694e-05
-1.28986e-05
2.99742e-05
6.63271e-05
8.72274e-05
8.61368e-05
8.57133e-05
6.1554e-05
1.66506e-05
-9.64211e-05
-0.000265449
-0.000279852
-0.000121291
-1.68624e-05
1.7029e-05
4.211e-05
4.99391e-05
3.6336e-05
2.97051e-05
3.89492e-05
5.76266e-05
8.7859e-05
0.000128039
0.000121682
7.08952e-05
3.11033e-05
-6.69063e-06
-5.12443e-05
-4.88456e-06
-4.13145e-06
-2.26508e-06
-1.44747e-06
-1.55939e-06
-1.99172e-06
-1.24862e-06
4.13751e-06
4.51496e-06
-2.22631e-06
-1.08093e-05
-6.02403e-06
1.65741e-06
5.4992e-07
-2.34018e-06
-2.72044e-06
8.70044e-06
2.29511e-05
2.70756e-05
2.78482e-05
4.12607e-06
4.14438e-06
-3.85335e-05
-3.51786e-05
-3.4502e-07
2.33709e-06
-1.84842e-06
5.87227e-07
9.59232e-06
9.93621e-06
4.3573e-06
1.54175e-06
-1.82921e-07
-1.04305e-06
6.97036e-06
1.99919e-05
1.21371e-05
3.58411e-06
4.2533e-06
1.37414e-06
8.1743e-07
1.99344e-06
3.60629e-06
1.93234e-06
3.12841e-08
-9.96318e-07
-2.05931e-06
-2.44404e-06
-8.93684e-07
-1.09889e-07
-8.64692e-07
-1.46219e-06
2.97005e-06
3.64853e-06
-4.18148e-06
-1.60482e-05
-1.40317e-05
4.62591e-06
7.70382e-06
1.58164e-05
9.84654e-06
5.60898e-06
7.51182e-06
1.62476e-05
1.52269e-05
2.47721e-06
-5.44308e-07
-1.71063e-06
-1.1029e-07
2.94155e-06
2.06958e-06
4.20471e-07
-8.00152e-08
-1.14831e-06
-2.8218e-06
-1.67975e-07
1.06639e-06
-3.24915e-06
-2.95672e-06
2.51232e-08
-1.2634e-07
5.14389e-07
1.28023e-06
9.67442e-07
3.185e-07
-2.68155e-09
-3.21481e-07
-8.53805e-07
-7.98873e-07
-2.8846e-07
9.11366e-08
-5.47578e-07
4.03324e-07
1.2045e-06
-2.11278e-06
-8.7484e-06
-1.01627e-05
-1.90526e-06
7.52223e-07
1.26331e-06
6.93528e-06
1.07556e-06
1.60302e-05
1.68041e-05
7.19621e-06
8.9511e-07
7.06585e-09
7.82637e-09
-5.41955e-07
-1.47299e-08
4.50706e-07
-3.84794e-08
1.1353e-07
3.20852e-07
-2.7413e-07
-8.57105e-07
-2.8101e-07
-1.17193e-06
-2.07552e-06
-1.3034e-06
-2.65747e-07
1.45403e-08
2.79228e-07
2.61707e-07
5.07085e-08
1.31423e-08
-2.03695e-08
-1.21421e-07
-1.57116e-07
-5.55355e-08
-4.68477e-09
-2.467e-07
-8.47432e-08
1.40738e-07
-7.31147e-07
-1.63647e-06
-2.09422e-06
-1.46632e-06
7.41903e-09
-1.91213e-06
1.12064e-07
6.60439e-08
1.07068e-05
8.58824e-06
1.91535e-06
2.71913e-07
4.67364e-08
1.31889e-08
3.927e-08
-9.14413e-08
-2.26852e-09
-1.26995e-07
-2.36621e-07
1.64771e-08
7.25983e-08
-1.26823e-07
-1.83412e-07
-2.02618e-07
-4.21926e-07
-5.10849e-07
-8.88779e-08
-4.12689e-08
4.48991e-08
7.01565e-08
1.74153e-08
1.96026e-10
-2.31551e-09
-1.7872e-08
-2.47578e-08
-4.44918e-09
-1.441e-08
-1.49317e-07
-5.67199e-08
-8.57536e-08
-3.12022e-07
-1.63077e-07
-5.75989e-08
-3.87985e-07
-4.91969e-09
-6.45173e-07
-1.21694e-06
-1.18237e-07
3.52439e-06
2.80748e-06
5.81452e-07
1.15068e-07
9.5009e-09
2.28574e-09
1.06748e-08
5.35488e-09
3.90589e-09
9.78439e-09
-6.69255e-08
-7.35608e-08
-2.3545e-09
-7.11742e-09
-4.28858e-08
-4.41749e-08
-5.6477e-08
-9.69713e-08
-1.63576e-08
-1.78234e-08
5.8544e-09
1.60515e-08
1.59341e-08
4.64357e-10
-1.09246e-10
-7.14634e-10
-6.91474e-09
-4.0367e-09
-4.40597e-09
-4.62434e-08
-2.22945e-08
-4.8237e-08
-1.39074e-07
-4.69973e-08
7.38448e-08
-4.02841e-08
-6.97039e-09
-5.34627e-08
-3.75456e-07
-9.272e-08
5.53115e-07
5.26743e-07
2.04146e-07
4.89432e-08
1.28442e-08
8.82728e-10
-4.34555e-09
4.45486e-10
-4.83358e-10
2.2926e-09
1.65799e-08
-4.85718e-09
-9.34279e-09
-7.56854e-11
-6.02976e-09
-1.02086e-08
-1.14696e-08
-1.15851e-08
-3.86056e-10
-2.07181e-09
3.42344e-10
1.48813e-09
3.04633e-10
4.00993e-11
8.66955e-11
4.41508e-10
-7.55088e-10
-8.27623e-10
-3.8791e-10
-1.36693e-08
-8.14069e-09
-9.5063e-09
-5.10102e-08
-3.39464e-08
1.36013e-08
3.39142e-09
7.77709e-09
1.49258e-08
4.11601e-08
-1.22933e-08
-1.57702e-08
4.95412e-08
4.88853e-08
1.68019e-08
9.93172e-09
1.14646e-10
-6.96166e-12
-3.37513e-11
-3.08929e-11
-8.97337e-11
7.19411e-11
2.4635e-10
-6.4367e-11
-8.81807e-13
-1.07607e-11
-4.18478e-10
-4.25837e-10
5.3147e-10
-2.07327e-10
-3.37569e-10
-2.54498e-11
3.82372e-11
3.94877e-12
1.98251e-13
4.58665e-14
5.23091e-12
4.3545e-11
-2.26125e-10
-4.9082e-12
-7.49314e-09
-1.4204e-09
3.47998e-10
-1.07269e-08
-1.13857e-08
-4.26604e-10
-2.2719e-09
3.9209e-09
-4.91818e-09
6.92841e-08
3.05214e-08
-3.10801e-08
5.44275e-09
1.53996e-08
9.06669e-09
1.57039e-10
4.47584e-13
5.40251e-14
2.82999e-13
3.2922e-14
3.3904e-13
-3.26925e-13
-1.48911e-12
2.90345e-13
1.63131e-13
3.1289e-13
-1.70583e-11
-4.72825e-12
-6.6007e-12
-9.03425e-13
-3.76936e-12
-1.66576e-12
1.23315e-13
2.06512e-14
1.65411e-15
2.25128e-16
-7.50195e-16
-5.82568e-13
1.40441e-11
-1.17382e-10
-2.7121e-10
-6.72176e-10
3.72487e-10
-4.6211e-10
-6.93011e-11
-7.13493e-11
-4.03892e-10
1.45242e-10
-5.88551e-09
1.9564e-08
1.88271e-08
-9.58917e-09
1.32531e-09
5.32536e-09
2.54283e-10
6.05786e-12
-4.25713e-14
-1.06681e-14
-1.91589e-15
3.30972e-16
-4.94928e-16
7.2977e-16
5.74221e-15
-7.51394e-16
-9.20314e-16
-2.25568e-16
-2.94475e-14
-4.57393e-14
2.07555e-13
-5.71485e-16
-2.4508e-14
-2.5458e-14
-2.36623e-15
5.85701e-18
1.02562e-17
-5.19829e-18
9.49306e-17
-4.46293e-17
-1.11809e-14
-1.87903e-13
2.11509e-14
4.86417e-11
3.85071e-11
-1.49117e-12
-6.95337e-14
-2.14052e-14
-1.00062e-11
-1.96916e-11
-3.51391e-11
-1.59421e-10
9.5718e-11
-4.92248e-10
-3.40067e-11
2.68255e-11
1.27961e-12
8.38643e-15
-1.08487e-16
4.59388e-17
8.54253e-18
-5.49681e-19
-1.12092e-18
-7.62592e-19
-1.24206e-17
1.66153e-18
6.56896e-18
-2.61161e-18
-1.74812e-17
-2.75526e-16
1.416e-15
1.26952e-17
-6.04009e-17
-8.3621e-17
-1.1564e-17
-7.48843e-19
-8.55284e-20
1.31503e-21
-8.83401e-20
1.73955e-18
1.51253e-17
-5.89014e-16
1.1208e-14
8.22879e-14
3.37695e-13
4.03868e-14
3.48666e-15
4.4987e-16
-3.69018e-15
4.57899e-14
1.1327e-13
5.21041e-13
3.12023e-14
-1.56679e-12
-4.29695e-13
1.09859e-13
9.14602e-15
2.98124e-16
3.35833e-18
-2.44577e-19
-1.57015e-19
1.85646e-19
-4.45337e-19
2.24546e-19
-4.5601e-19
-8.08638e-20
1.53209e-18
2.17148e-18
-5.79541e-19
-1.04358e-18
4.50063e-18
-1.05928e-19
8.42505e-20
-4.53277e-20
4.27716e-20
-8.34177e-21
-1.35607e-19
3.5972e-19
1.19056e-19
2.55297e-20
-9.54659e-21
-3.29394e-19
2.38094e-17
5.46887e-17
2.30306e-15
5.76203e-16
2.40923e-17
-1.6332e-19
2.41e-18
-1.18765e-16
-2.45492e-16
-1.14875e-15
1.99898e-16
-3.7844e-15
-1.48248e-15
4.00139e-16
3.57534e-17
1.56416e-18
-3.77038e-20
1.49706e-19
-1.43569e-19
-3.89314e-20
2.49512e-19
-3.97548e-20
-2.96322e-19
-1.72401e-20
7.81018e-21
7.55753e-19
-4.45082e-19
-4.6414e-20
4.97214e-20
-2.00286e-20
4.68126e-20
1.14716e-19
2.18379e-19
6.00601e-21
5.90772e-20
2.65892e-19
4.96374e-21
-8.19142e-21
2.66361e-20
3.71063e-20
3.59442e-20
-3.26411e-20
8.20292e-18
1.60255e-18
-1.30021e-19
-1.09769e-19
-1.16697e-19
7.82317e-19
-3.36277e-19
1.09488e-18
3.93622e-19
-9.03032e-18
-6.65421e-18
2.06677e-18
2.74687e-19
5.15435e-19
-1.14062e-19
1.29804e-19
2.34128e-20
-2.6863e-19
-4.42356e-19
9.04076e-19
-1.12624e-18
-2.93474e-19
-4.75155e-19
1.04084e-18
6.4322e-19
-3.67451e-19
1.83759e-19
4.09093e-20
-7.22778e-20
-7.12489e-21
-2.15544e-20
-1.79885e-21
-8.32219e-20
-5.63065e-19
-1.154e-19
1.71392e-19
5.95785e-20
9.25031e-20
-2.1877e-19
2.02535e-19
-7.59403e-20
-1.31248e-19
1.15147e-19
-1.44716e-20
-6.54203e-20
-1.6418e-19
9.40272e-20
3.45464e-20
-7.0343e-21
-1.2207e-19
-7.95899e-20
-3.75024e-20
-3.01027e-20
-1.46713e-19
3.31053e-20
-2.16157e-19
-3.98205e-21
-1.31837e-19
-3.35518e-19
2.94015e-19
1.32733e-18
4.2952e-19
-1.62862e-19
-4.77878e-19
7.66137e-19
1.53483e-19
2.81232e-20
1.74841e-19
-2.76147e-19
-9.12914e-21
9.4286e-22
2.68768e-20
-1.11627e-19
6.85615e-20
-1.1628e-19
-2.49107e-19
-8.38471e-20
-6.16472e-20
-5.51588e-20
-1.3752e-19
-3.37511e-19
-1.81132e-19
-4.09487e-20
-1.64367e-20
-7.44558e-20
-5.81852e-20
-2.74064e-20
-3.27918e-20
-1.90158e-20
-7.86325e-20
4.70879e-20
5.57123e-20
-2.49274e-20
-4.36416e-20
-6.30247e-20
-1.7606e-19
3.02467e-20
9.77643e-20
-2.40981e-19
-3.24775e-19
3.0015e-19
1.04763e-18
5.10999e-20
-6.37602e-19
-4.63132e-19
1.57826e-19
-5.96831e-19
4.59078e-20
-1.12444e-19
-9.50511e-20
-4.61815e-20
1.3854e-20
4.75875e-21
1.13255e-19
-1.24795e-20
-2.63514e-20
7.07996e-20
-4.61949e-20
-1.3802e-19
-4.44418e-19
2.65043e-19
3.37722e-19
-3.87299e-20
-2.63114e-20
1.94334e-19
-4.45305e-20
2.4167e-20
2.18235e-20
1.26361e-19
-4.53e-20
-7.60709e-20
-7.56467e-20
-4.53363e-20
7.66849e-21
-8.40963e-20
6.10247e-20
6.76591e-20
8.32705e-20
-1.69851e-20
-1.15613e-19
4.12622e-20
3.20986e-19
1.65664e-19
-1.74953e-20
-1.04592e-19
1.60612e-19
3.8648e-19
1.40408e-20
4.98493e-20
-1.49065e-20
2.09424e-20
2.54735e-20
-5.61069e-20
-4.62383e-20
-3.85468e-20
5.64549e-20
1.62024e-20
2.66699e-20
-5.61219e-20
-1.11224e-19
2.07145e-19
6.35897e-20
-5.61225e-20
-5.50999e-21
2.29909e-19
9.55146e-20
1.10292e-19
-3.21376e-20
-2.37036e-19
7.7177e-20
1.22923e-19
1.54205e-19
-1.0221e-19
-2.36954e-20
5.62237e-20
1.30409e-19
1.10361e-19
-4.02476e-20
-4.95752e-20
-2.29675e-19
4.88512e-20
-1.29447e-19
9.3817e-21
6.29873e-20
3.0969e-20
-1.01267e-19
-7.34456e-20
1.13603e-20
4.99318e-20
5.27996e-20
-8.50193e-20
5.83197e-20
1.72083e-19
-1.18261e-19
-1.50287e-19
3.58321e-20
-7.44994e-20
2.76109e-20
-3.8531e-21
-1.60058e-19
6.97256e-21
1.36773e-21
-5.65146e-21
-2.0208e-20
-1.54487e-19
4.92313e-20
4.63969e-20
1.48851e-20
-3.89739e-20
8.33508e-20
-6.85013e-20
-2.111e-20
-1.41587e-20
1.44935e-19
-1.50691e-21
-6.04864e-21
-2.51536e-19
-6.28559e-20
3.9327e-20
-3.28198e-20
-4.7847e-19
-1.62886e-19
3.34073e-20
2.89327e-21
2.36675e-20
3.85041e-20
-1.22192e-21
-1.44243e-21
1.28694e-20
-1.50473e-19
-2.81075e-20
-4.75528e-21
7.10049e-20
2.33244e-19
2.86121e-19
-5.45339e-20
2.02735e-19
3.19413e-20
-1.6405e-19
-1.80849e-20
-3.47928e-19
-5.03013e-20
3.53274e-19
4.12941e-20
-1.3817e-19
-9.66253e-21
-2.25987e-20
-9.74265e-22
2.33398e-19
1.5974e-19
-2.16358e-19
1.59998e-20
3.38049e-20
3.79259e-21
-1.14863e-19
-1.12003e-19
-6.65568e-20
-1.20354e-19
7.74384e-20
-9.07554e-21
-4.05472e-19
5.50566e-19
3.82166e-19
-5.059e-20
1.30499e-20
6.3633e-20
-6.41432e-20
-0.000117728
-0.000298139
6.6289e-05
0.000468199
0.000620341
0.000714644
0.000609251
-5.33424e-05
-0.000659077
-0.000790749
-0.000804185
-0.00101659
-0.00138421
-0.0017385
-0.00199091
-0.00228325
-0.00233103
-0.000659602
0.00392901
0.00857747
0.00814961
0.00366999
1.21303e-05
-0.00337949
-0.00687662
-0.00993141
-0.0112681
-0.0101929
-0.00674427
-0.00219428
0.00192346
0.00492047
0.00609906
0.00516765
0.00360568
0.00272041
0.00147755
0.000764464
0.000667341
0.000403514
0.00133938
0.00106598
0.000225645
-0.000243774
-0.000295106
-0.000556629
-0.00108143
-0.000766022
0.000530985
0.00190373
0.00273246
0.00296235
0.00275664
0.00230753
0.00189592
0.00217167
0.00316277
0.00244528
-0.00347289
-0.0124676
-0.0148609
-0.00751496
0.00185973
0.00931598
0.0131549
0.014097
0.0128315
0.0101867
0.00628423
0.00158271
-0.00285493
-0.00626634
-0.00792661
-0.00753102
-0.00592606
-0.00439617
-0.00269587
-0.00118346
-0.000183928
0.000699772
-3.47454e-05
-5.81949e-06
-3.70474e-06
2.98312e-05
9.49596e-05
0.000148074
0.000123724
-0.000126745
-0.00035889
-0.000305853
-8.47953e-05
7.03895e-06
-0.000101982
-0.000313737
-0.00053072
-0.000668499
-0.000524632
8.53407e-05
0.000784167
0.000357071
-0.00114263
-0.00128552
4.59761e-05
0.00140714
0.00179653
0.00117667
0.000124047
-0.000666614
-0.000955204
-0.000926831
-0.000822025
-0.000746994
-0.000720515
-0.000743682
-0.00066442
-0.000276055
2.7537e-05
-5.78105e-05
-9.51687e-05
-6.91499e-05
-0.000509763
-0.000323901
-0.000124925
-0.000103392
-0.000150802
-8.00661e-05
0.000167138
0.000322732
8.2312e-05
-0.000439572
-0.000781123
-0.000754062
-0.000536832
-0.000263437
-3.94611e-05
-4.47745e-05
-0.000399562
-0.000713291
-1.11846e-05
0.0019452
0.00319546
0.0018239
-0.000746614
-0.00222322
-0.00235016
-0.00186278
-0.00115832
-0.000628234
-0.000292226
5.81775e-05
0.000482917
0.000858468
0.001096
0.00116018
0.000940803
0.00060121
0.000485309
0.000236265
-0.000270927
-0.000514567
-0.000179272
-0.000116844
-2.97294e-05
-9.92378e-06
-4.30651e-05
-3.96221e-05
3.28352e-05
0.000132516
0.000116913
-3.77476e-05
-0.000218169
-0.000255825
-0.000147447
1.69007e-05
0.000165372
0.000212986
7.89908e-05
-0.000165644
-0.000204878
0.000335204
0.00103261
0.000877525
-0.000142071
-0.000999429
-0.00109559
-0.000716111
-0.000237441
8.13802e-05
0.000229723
0.000312266
0.000395597
0.000472504
0.00052313
0.000557482
0.000507237
0.000324591
0.00019731
0.000142954
-1.5683e-05
-0.000162452
-2.67173e-05
-2.27027e-05
-8.53067e-06
6.82623e-07
-3.61839e-06
-6.59576e-06
-8.35726e-07
1.76799e-05
2.34425e-05
8.50228e-06
-1.61071e-05
-3.88543e-05
-2.78819e-05
8.57183e-06
4.28976e-05
4.99697e-05
2.31958e-05
-1.39759e-05
-5.53631e-05
-1.11795e-05
0.000139165
0.00015405
2.73308e-05
-0.000179145
-0.000233122
-0.000130891
-3.33853e-05
1.64473e-05
3.86313e-05
4.56187e-05
5.15667e-05
6.04973e-05
6.94279e-05
8.63573e-05
0.000111837
9.02312e-05
4.77459e-05
3.81797e-05
2.17868e-05
-1.59625e-05
1.52408e-06
1.5339e-06
-1.25973e-06
-4.25997e-07
6.99054e-07
1.05571e-06
-3.40226e-07
1.06123e-06
5.58122e-06
-1.09905e-06
1.37626e-06
4.67015e-06
3.33476e-06
1.90325e-06
3.32206e-07
-1.1724e-06
-2.44556e-06
1.0089e-06
-3.43126e-06
-1.67257e-05
2.14829e-05
2.43182e-05
8.67848e-06
-2.76575e-06
-9.82863e-06
-3.97029e-06
-2.97175e-06
2.51643e-06
7.89666e-06
6.29315e-06
2.16425e-06
5.08138e-07
6.59644e-07
6.92579e-07
7.85392e-06
1.56975e-05
2.57987e-06
5.90735e-07
7.28645e-06
4.61366e-06
2.86993e-06
4.47607e-06
1.89831e-06
-2.14963e-07
1.14301e-07
8.68396e-07
7.03657e-07
-4.99146e-07
2.07825e-06
1.36153e-06
-3.16711e-06
1.98969e-06
4.31972e-06
2.49704e-07
-5.40955e-06
-5.04569e-06
-1.35048e-06
8.37836e-07
2.70782e-06
-4.22861e-06
1.05729e-06
1.38513e-05
1.59289e-06
1.30264e-05
1.80983e-05
1.00279e-05
1.61001e-06
5.38148e-07
1.83022e-06
1.53756e-06
2.3396e-07
-3.10423e-07
2.86509e-08
5.05262e-08
-1.06813e-06
2.76682e-06
1.19211e-06
-4.95442e-06
-3.13774e-06
1.84388e-06
1.01721e-06
2.37009e-06
1.98694e-06
3.61606e-08
-2.86567e-07
1.02515e-07
4.24608e-07
-1.15472e-07
-7.85617e-07
1.62676e-06
-1.13143e-06
-2.24776e-06
-3.01195e-08
-6.71412e-07
-2.56074e-06
-1.55985e-06
-1.39014e-07
-5.75274e-09
1.17042e-06
6.67302e-07
-1.39205e-06
6.52535e-06
1.40767e-06
6.80333e-06
8.60755e-06
3.95166e-06
4.12167e-07
1.47881e-07
1.87946e-07
1.96547e-07
2.8645e-08
-8.35069e-08
-2.12963e-07
4.00571e-07
2.80241e-07
8.39191e-08
1.71706e-06
-1.30502e-06
-3.60812e-06
-1.71874e-06
-2.39875e-07
6.70343e-07
8.40654e-07
-1.70371e-08
-2.79387e-07
-7.4744e-08
1.20071e-07
1.21386e-07
-5.96202e-07
-4.97292e-07
4.39474e-07
-1.56593e-06
-1.54485e-06
-1.0249e-06
-8.49783e-07
-2.58233e-07
1.2183e-08
-1.27511e-07
2.17299e-07
6.27456e-07
-5.91394e-07
1.28083e-06
4.71933e-07
2.62288e-06
2.80478e-06
8.45665e-07
2.67125e-08
2.67408e-08
4.16791e-09
-6.95109e-09
-4.06016e-09
-4.90541e-09
-1.37393e-07
-3.26876e-07
2.64811e-07
8.26785e-09
3.7122e-07
2.67443e-07
-1.09152e-06
-1.40799e-06
-2.84347e-07
4.37681e-08
2.14374e-07
2.58241e-09
-7.27547e-08
-2.52878e-08
-1.8756e-10
4.12445e-08
-7.2053e-08
-4.80009e-07
-1.05059e-07
-2.436e-07
-1.00296e-06
-8.58329e-07
-4.26337e-07
-7.9785e-08
1.81621e-08
-4.8734e-08
1.35671e-08
2.27839e-07
-1.75836e-07
-3.36789e-07
-3.27329e-08
8.5117e-07
7.32702e-07
6.33043e-08
-2.0303e-08
-1.09965e-08
9.29121e-11
-5.96192e-10
2.42475e-11
7.65435e-09
3.13654e-08
-9.09844e-08
-6.93058e-09
5.81253e-08
1.2764e-08
1.44318e-07
-1.16381e-07
-4.17798e-07
-1.01676e-07
-2.774e-08
4.44398e-08
3.20325e-08
9.73206e-09
7.90686e-10
-1.366e-09
-6.25913e-09
4.32189e-09
-1.08881e-07
-1.60575e-07
1.74166e-08
-2.5766e-07
-3.02395e-07
-1.59378e-07
-7.10797e-08
-1.18635e-08
-6.13781e-09
-2.18321e-09
7.58367e-08
-1.623e-08
-3.27276e-07
-6.92106e-08
1.49941e-07
1.98322e-08
-2.72291e-08
-9.59824e-09
-3.49003e-09
-5.32244e-10
1.51566e-13
-6.92046e-11
-9.87974e-10
4.08548e-09
1.6442e-09
-1.75971e-08
1.3386e-08
-7.09919e-11
2.46297e-08
1.38006e-08
-6.06416e-08
-2.04667e-08
-1.80947e-08
2.05629e-09
1.24972e-08
5.99106e-09
6.79367e-10
-3.80168e-11
-6.25819e-10
-1.22498e-09
-1.41812e-08
-4.7888e-08
3.99517e-09
-1.63875e-08
-7.03123e-08
-5.81933e-08
-2.34316e-08
-8.79246e-09
-2.9401e-10
-7.54767e-09
1.5912e-08
5.67362e-09
-9.73143e-08
-2.12403e-08
-2.635e-08
-4.53244e-08
-1.07173e-08
6.35251e-11
-5.74243e-11
-3.24342e-11
-2.77555e-12
1.26336e-12
-6.70108e-11
-2.46408e-10
7.11985e-10
-2.14812e-09
1.82538e-10
2.20137e-09
1.13636e-09
8.07254e-09
2.46004e-10
-5.72674e-10
-1.25631e-08
-2.91314e-09
1.29968e-09
4.41456e-10
4.04101e-11
-1.69691e-12
-1.17379e-10
-1.22878e-10
-1.88628e-10
-1.16149e-08
-1.22593e-09
7.89725e-10
-1.748e-08
-2.21279e-08
-8.52488e-10
-5.63119e-10
3.30507e-10
-9.60383e-09
5.88976e-10
1.17802e-10
-8.52648e-09
-1.71078e-09
-1.01727e-08
-9.32155e-09
-6.295e-10
4.49525e-11
-6.09733e-12
-6.17136e-13
-9.07514e-15
-2.30459e-15
3.88151e-13
2.282e-12
-7.27962e-12
2.3035e-11
-6.51463e-11
-1.6857e-12
1.0574e-11
3.2104e-10
1.24113e-09
-3.17159e-10
-4.20763e-10
-1.49146e-10
2.15413e-11
1.74655e-12
5.48392e-14
-4.32178e-14
1.05809e-12
-1.02977e-11
6.66239e-12
-6.17921e-12
3.07304e-10
3.39515e-10
-4.77641e-10
-1.51417e-10
-3.94741e-11
3.70619e-13
6.08212e-11
-2.00217e-11
-1.00671e-11
1.10663e-10
3.37723e-09
1.03679e-10
-7.25816e-10
-1.36158e-09
-6.43108e-11
-4.66079e-12
-3.32249e-13
-1.81383e-14
-8.64695e-16
-1.99914e-16
-2.72412e-16
-1.12871e-14
4.87334e-14
-1.50553e-13
2.65405e-13
-5.18743e-15
-1.55123e-14
2.652e-12
-5.87996e-11
-1.4739e-12
-3.46243e-12
-2.56435e-12
-1.88351e-13
-2.42126e-15
6.19244e-17
4.39773e-17
-3.93271e-15
4.33444e-14
8.86035e-17
-1.50767e-14
5.2561e-13
2.76978e-12
-2.63093e-12
-8.97876e-13
-9.27258e-14
1.20526e-14
-5.63501e-13
5.9453e-13
1.36143e-12
-6.24397e-11
2.47009e-11
-9.82791e-11
-1.65123e-10
-4.50945e-11
-7.34083e-13
1.48389e-13
7.48245e-15
7.0203e-17
-5.84244e-18
1.94966e-18
-8.93525e-18
-1.31119e-18
-1.99709e-16
6.56802e-16
-7.8771e-16
-2.31991e-16
3.45855e-16
1.30055e-14
-1.66944e-13
-4.21067e-15
-1.63884e-14
-1.93374e-14
-1.82225e-15
-7.38177e-17
-3.8022e-18
-3.80903e-18
2.47602e-17
-8.94343e-17
-7.31434e-19
3.79882e-17
-3.25821e-16
1.57155e-14
-8.85059e-15
-4.19435e-15
-3.09573e-16
-3.65717e-17
1.73382e-15
-3.16931e-15
-1.67085e-14
3.33891e-13
1.61132e-14
-4.94984e-13
-1.34196e-12
1.72696e-13
7.32338e-14
4.59449e-15
1.17879e-16
6.70453e-19
2.02148e-19
-7.61069e-19
-5.91378e-19
7.1811e-19
1.83318e-19
-2.52698e-18
3.611e-18
4.38168e-19
9.10001e-18
5.06274e-17
-4.68932e-16
-8.31938e-18
-2.61984e-17
-1.04077e-17
1.22092e-18
-3.44899e-19
2.40043e-20
3.64344e-19
-1.68913e-19
3.18803e-19
-2.70427e-20
2.26107e-20
-5.62774e-18
8.70128e-17
-3.83958e-18
-2.8326e-17
-3.61367e-18
-3.21659e-19
-1.00772e-18
1.09764e-17
3.05598e-17
-7.62274e-16
5.12344e-17
-1.5666e-15
-5.15929e-15
3.78561e-15
6.4279e-16
2.82556e-17
7.63107e-19
9.50156e-21
5.09252e-20
9.12402e-20
-3.1242e-19
-8.83288e-19
-4.97199e-19
7.96171e-20
-2.14804e-18
6.16151e-19
4.107e-20
-3.14625e-19
-1.84815e-18
1.00058e-19
1.73616e-19
1.58941e-19
1.03347e-20
1.79789e-20
1.36384e-19
2.04486e-20
-3.46842e-19
1.54044e-19
1.85851e-20
9.09025e-20
-5.08356e-21
6.1021e-19
-3.59112e-19
-8.95996e-19
9.46298e-20
9.27316e-20
-1.16271e-19
-2.6546e-19
1.12914e-19
5.97511e-19
4.40945e-19
-3.91172e-18
-3.88469e-17
1.40591e-17
3.23962e-18
2.72468e-19
1.76602e-19
-4.27446e-20
2.33752e-21
1.82704e-19
-9.3891e-20
-8.53488e-19
7.50504e-20
3.38819e-19
-6.50301e-19
-5.04913e-19
1.1659e-18
-2.47365e-19
-9.88382e-20
2.22209e-19
3.84753e-19
-1.96516e-19
6.70712e-20
3.40603e-20
-4.88433e-20
-4.07543e-20
9.66779e-20
1.74016e-19
5.13421e-20
4.41218e-20
4.36575e-20
3.72918e-20
5.91718e-20
-1.93737e-19
-7.19633e-20
1.89665e-20
1.64515e-21
-1.54586e-20
-1.88049e-19
-8.62881e-20
-6.13276e-20
-1.73808e-20
-1.31253e-19
7.78362e-20
-1.14233e-19
5.70643e-20
1.30253e-19
3.57408e-20
-7.92301e-20
5.17845e-20
-1.37461e-19
1.36231e-18
1.11021e-18
-1.59812e-18
1.16046e-19
-2.04935e-19
-1.56912e-19
3.67774e-19
-3.21294e-19
3.23485e-19
-7.13349e-20
-1.24776e-19
-1.21575e-20
3.04941e-20
-2.684e-19
-2.17586e-19
1.01904e-19
-2.48022e-19
3.09299e-20
1.25835e-19
2.86468e-19
-9.71332e-19
-6.78076e-20
1.9933e-19
-5.65932e-20
-1.05049e-19
1.43484e-19
1.04703e-19
2.30437e-20
-1.07221e-19
4.77648e-20
8.05064e-20
-1.00463e-19
-2.54427e-20
-7.46895e-20
-3.5563e-21
7.079e-20
2.31193e-20
-3.95991e-20
8.30438e-21
7.15723e-20
3.30214e-19
-7.47946e-19
-1.88578e-18
2.711e-19
2.47122e-19
-4.49499e-19
-1.52184e-19
2.02635e-19
1.48553e-19
-1.87851e-19
1.13221e-19
-2.95939e-21
3.98537e-20
-2.99244e-20
1.6762e-20
2.00295e-20
-1.34757e-19
-7.34037e-20
3.36982e-20
-8.14093e-20
-3.53322e-19
2.4271e-19
-6.37371e-20
6.82922e-20
7.86787e-21
2.89133e-19
2.67387e-19
-3.00975e-20
-2.0036e-20
-8.94859e-21
-1.90407e-20
1.95713e-20
-1.71619e-19
1.88462e-19
7.93933e-20
-2.11985e-19
4.67285e-20
-9.16459e-20
-6.95634e-20
1.57877e-19
4.88065e-21
1.58403e-19
9.90649e-19
1.49456e-19
1.37502e-19
3.24944e-19
-8.85234e-19
-5.4388e-19
-7.19585e-20
-1.82802e-20
4.61339e-20
2.29033e-20
7.2034e-20
-5.03184e-20
9.29535e-20
8.66901e-20
-1.40763e-20
-4.37681e-20
-9.12411e-21
-5.47516e-20
3.30354e-19
-1.09889e-19
-3.50504e-20
-1.99683e-20
-2.71331e-19
-1.58512e-20
4.41291e-21
-5.51188e-20
-2.91909e-20
1.41214e-19
-2.29598e-20
5.47125e-19
1.76574e-19
-3.37854e-19
9.45433e-21
-5.00515e-19
-1.71112e-19
2.87337e-19
-1.76714e-19
2.78127e-20
2.26494e-19
1.17808e-19
1.95243e-19
-1.22544e-19
5.30512e-20
-6.53688e-20
-9.6513e-20
-1.30095e-19
2.0083e-21
1.51629e-20
9.33926e-20
-3.28357e-20
3.39635e-20
-9.91006e-20
1.66133e-20
-2.1152e-20
-3.41649e-20
5.91834e-20
3.12801e-20
9.74476e-20
-3.47396e-19
1.44601e-19
3.39742e-19
2.28687e-20
-1.15162e-19
-2.97584e-19
-1.58572e-19
-8.20005e-20
-6.83547e-20
-2.75473e-20
1.5573e-19
1.20505e-19
2.15828e-19
5.39421e-21
-1.82142e-20
9.28426e-20
-2.36557e-20
-4.18313e-20
-1.46556e-19
-2.93653e-20
2.69936e-19
-1.06888e-19
-2.96849e-19
6.86261e-21
6.43143e-21
3.82286e-20
6.95662e-20
1.41617e-19
2.16752e-20
-1.12988e-19
-2.88209e-20
3.96346e-20
-3.41206e-20
8.28167e-20
-1.74487e-19
6.88428e-20
4.87267e-20
-3.56088e-20
6.05529e-20
2.51016e-19
-1.32455e-19
-5.12581e-20
2.6002e-21
-2.43092e-19
-1.09708e-19
-1.1627e-20
2.93247e-20
5.45309e-21
1.02182e-19
-2.67301e-19
8.5251e-20
1.14433e-19
5.72162e-20
1.06134e-19
-1.65142e-20
6.62363e-20
3.8055e-19
2.7133e-20
-1.53587e-19
6.27427e-21
-8.73247e-20
1.41523e-19
-1.66596e-19
-1.86761e-20
-9.19231e-20
6.455e-20
-1.19127e-19
-5.64246e-20
-0.000724155
-0.000149172
0.00064434
0.000981516
0.000725235
5.69233e-05
-0.000742869
-0.00129883
-0.00145686
-0.00128145
-0.00126311
-0.00149627
-0.0019711
-0.0027742
-0.00408081
-0.00592617
-0.0078126
-0.00846765
-0.00625454
-0.000133787
0.00583043
0.00506903
0.0012589
-0.000767973
-0.00247064
-0.0038802
-0.0040419
-0.00307308
-0.00187794
-0.00105171
-0.000775329
-0.00127685
-0.002876
-0.00542585
-0.00687451
-0.00478605
-0.00148262
-0.00026127
-0.00030251
-0.000616656
7.73394e-06
-0.000798253
-0.00127954
-0.000748193
0.000353655
0.00123042
0.00150589
0.00124111
0.000754911
0.000498126
0.00110847
0.00225508
0.00341233
0.00452989
0.00598999
0.00808483
0.0103148
0.0110211
0.0078744
-0.000512796
-0.00975281
-0.0106592
-0.00327514
0.00376192
0.00795317
0.00911506
0.00746595
0.00454957
0.00208971
0.000692578
0.000229197
0.000579841
0.00184618
0.0043108
0.00675889
0.00575705
0.00129826
-0.00141663
-0.00108964
-0.000109232
-1.69522e-05
-4.84494e-06
-3.98241e-07
6.7575e-05
0.0001274
0.000108778
-7.00644e-06
-0.000157269
-0.000282458
-0.000368847
-0.000360995
-0.000272182
-0.000205464
-0.000218634
-0.000270484
-0.000251309
-0.000100082
0.000142316
0.000301892
4.82506e-05
-0.000586303
-0.00135906
-0.00124807
-0.000149561
0.000808323
0.00112043
0.000665292
-9.90461e-05
-0.000646557
-0.000867319
-0.000886341
-0.000817728
-0.000771388
-0.00083323
-0.000887324
-0.000639601
-8.79308e-05
5.60588e-05
-9.90352e-05
-8.48652e-05
0.00023943
0.000351198
0.000273968
-4.58056e-05
-0.000353261
-0.000433437
-0.000284329
-2.98507e-05
0.00021191
0.000288603
5.0403e-05
-0.000344111
-0.000634867
-0.000777671
-0.000891887
-0.00107946
-0.00129777
-0.00131504
-0.000814238
0.000293778
0.0017244
0.00252138
0.000967599
-0.00127977
-0.0020889
-0.0019691
-0.001434
-0.000770557
-0.000255793
2.42352e-05
0.000113029
0.000119225
0.000144483
8.67693e-05
-0.00025527
-0.000543023
-1.64578e-06
0.000868405
0.000772583
0.000310996
7.67183e-05
0.000111724
0.000101209
-2.02593e-05
-0.000144515
-0.000165621
-8.55396e-05
2.70278e-05
0.000121354
0.000166605
0.000106588
-3.0011e-05
-0.000133223
-0.000160356
-0.000164112
-0.000208033
-0.00028553
-0.000336635
-0.000275718
7.79242e-06
0.000461342
0.000900784
0.000695077
-0.000252965
-0.000826251
-0.000814432
-0.000493222
-8.47645e-05
0.00021972
0.000361336
0.000377848
0.000333518
0.000296795
0.000278358
0.000192533
4.13328e-05
6.38478e-05
0.000285029
0.000319817
0.000140207
1.04557e-05
1.76028e-05
2.23981e-05
8.97208e-07
-2.82451e-05
-3.51227e-05
-1.79248e-05
7.15736e-06
2.63901e-05
3.6573e-05
3.23139e-05
1.18599e-05
-7.65024e-06
-1.37408e-05
-1.67684e-05
-2.58989e-05
-3.59429e-05
-4.01019e-05
-5.10209e-05
-3.97715e-05
3.84206e-05
0.000112752
0.000133774
1.45465e-05
-0.000153868
-0.000183474
-0.000109183
-1.50696e-05
4.95335e-05
7.51121e-05
7.61092e-05
6.76334e-05
5.86761e-05
5.74962e-05
5.50337e-05
3.55752e-05
2.52337e-05
4.71544e-05
6.20522e-05
3.1594e-05
5.60196e-07
-5.70997e-07
2.78826e-06
2.77588e-06
-8.71711e-07
-3.90738e-06
-3.65202e-06
-7.31797e-07
2.66684e-06
4.28569e-06
3.96872e-06
4.36213e-06
4.34848e-06
3.05142e-06
1.40483e-06
2.64016e-07
-3.71508e-07
1.98332e-06
2.48085e-06
-1.15779e-05
-4.54361e-06
1.79465e-05
9.97752e-06
5.95661e-06
-1.02505e-05
-2.36719e-05
-1.58152e-05
-2.92476e-06
2.81797e-06
1.49982e-06
-2.07988e-07
1.89132e-06
4.03558e-06
4.85965e-06
5.61728e-06
3.73093e-06
1.90557e-06
4.5385e-06
9.86242e-06
1.03762e-05
1.09766e-06
-2.98023e-06
-1.95643e-06
5.13454e-07
2.81819e-06
2.73773e-06
6.12318e-07
-1.05122e-06
-1.62807e-06
-1.64644e-06
-2.0587e-06
-1.72549e-06
-4.92347e-08
9.6383e-07
8.64849e-07
1.15597e-06
1.36652e-06
8.12982e-07
3.15872e-06
1.29131e-06
-5.03391e-06
4.98248e-06
3.25513e-06
-1.63951e-06
7.00974e-06
5.18274e-06
9.50577e-07
5.16766e-07
-7.82456e-07
-3.28603e-06
-3.86588e-06
-1.88594e-06
-1.14187e-07
1.87263e-07
4.98243e-07
5.57303e-07
-1.43364e-06
-2.0393e-06
-4.70972e-07
2.60893e-06
7.5184e-07
-1.67417e-06
-2.61233e-06
-6.76613e-07
1.19449e-06
2.01082e-06
1.26517e-06
1.6627e-07
-6.97638e-07
-1.18995e-06
-1.48913e-06
-1.96798e-06
-1.53802e-06
-7.05484e-07
-2.8796e-07
7.62249e-08
4.79088e-07
1.177e-07
-6.56519e-08
1.31887e-06
-6.01001e-07
1.59978e-07
2.74189e-06
-3.03029e-07
3.64725e-06
4.10994e-06
1.6453e-06
4.70492e-07
-2.89688e-07
-7.59127e-07
-5.51523e-07
-7.06566e-08
4.45594e-08
-2.96429e-07
-4.44521e-07
3.71205e-08
-5.28237e-08
-1.04465e-06
-1.12871e-06
9.9311e-08
2.76172e-07
-4.8732e-07
-1.77179e-06
-7.67448e-07
3.82149e-07
1.15216e-06
1.16964e-06
6.77037e-07
1.52231e-07