/*--------------------------------*- C++ -*----------------------------------*\
| =========                 |                                                 |
| \\      /  F ield         | OpenFOAM: The Open Source CFD Toolbox           |
|  \\    /   O peration     | Version:  5.0                                   |
|   \\  /    A nd           | Web:      www.OpenFOAM.org                      |
|    \\/     M anipulation  |                                                 |
\*---------------------------------------------------------------------------*/
FoamFile
{
    version     2.0;
    format      ascii;
    class       volScalarField;
    location    "50.4676134421789371";
    object      Mtt;
}
// * * * * * * * * * * * * * * * * * * * * * * * * * * * * * * * * * * * * * //

dimensions      [0 0 -1 2 0 0 0];

internalField   nonuniform List<scalar> 
60000
(
-141.809
-148.948
-147.992
-132.127
-110.362
-101.902
-106.602
-109.554
-109.784
-113.234
-120.107
-128.098
-132.429
-131.502
-129.272
-127.446
-124.243
-117.994
-109.408
-100.028
-88.6266
-79.7636
-75.3275
-73.4231
-74.2311
-77.8507
-86.5192
-104.42
-123.924
-123.317
-103.865
-89.4834
-90.6981
-110.591
-144.418
-160.384
-139.665
-122.133
-123.564
-132.075
-148.115
-144.443
-131.417
-111.009
-88.5929
-74.4203
-72.6612
-79.2812
-90.1927
-108.862
-134.151
-152.683
-153.632
-138.497
-122.298
-121.881
-140.799
-169.228
-189.394
-198.907
-202.997
-206.96
-224.837
-259.105
-302.621
-346.528
-388.274
-425.281
-440.542
-409.833
-344.244
-286.237
-256.455
-252.4
-260.133
-246.946
-196.16
-147.654
-133.352
-141.053
60.4901
62.4222
62.1374
58.4593
51.2585
44.6836
41.3861
40.8089
41.6076
44.2406
49.8795
56.4882
60.5031
59.5927
56.0876
55.8602
60.6622
66.5224
67.636
66.2244
63.935
61.7855
63.7498
71.0678
82.3727
93.9258
103.145
109.698
113.699
111.53
100.546
87.202
78.5062
77.0435
82.1688
86.7091
78.4929
63.9024
56.8125
57.3321
9.26668
10
9.99338
8.69971
6.82898
5.54897
5.02434
4.78975
4.80686
5.33295
6.52595
8.18064
9.25579
8.70668
7.28613
6.60883
7.60894
10.0493
12.1816
12.5086
11.8601
11.456
12.2264
13.8787
15.7152
17.5118
19.9797
23.7408
27.4445
28.5305
26.0686
22.1509
18.9838
17.4741
17.4298
16.8237
14.1027
10.7348
8.74173
8.53398
0.244827
0.272643
0.263644
0.19284
0.0999092
0.0512043
0.0623174
0.0976336
0.107149
0.118911
0.149308
0.179745
0.176906
0.0924885
-0.00379412
-0.0278264
0.0532564
0.287482
0.538498
0.550079
0.519896
0.371877
0.217098
0.122939
0.114319
0.168713
0.262142
0.557893
1.04327
1.32281
1.28568
0.98273
0.662955
0.533897
0.654314
0.711274
0.527692
0.301173
0.208943
0.215404
0.00065519
-0.000582413
-0.00297269
-0.00355567
-0.00277381
-0.0035185
-0.00556211
-0.00333463
0.00079136
0.00184053
0.00367487
0.00252015
0.000819726
-0.00336236
-0.00965405
-0.00963361
-0.016028
0.00209428
0.0672693
0.0191921
-0.00552216
0.0145465
-0.0481455
-0.0807498
-0.032505
0.0005759
0.00217131
-0.00379605
0.0275278
0.0642208
0.036559
0.0170817
-0.00616869
-0.0264485
-0.0195627
0.0116001
0.00910551
-0.00353339
-0.00909947
-0.00337813
-3.4689e-05
0.000345801
0.00115446
0.00168374
0.00211326
0.00278378
0.00217517
0.000882716
0.000497529
0.000291611
0.000126947
0.000270939
0.000509427
0.00417718
0.00907218
0.0112073
0.00624544
-0.00463245
0.0211871
0.0173255
-0.0251493
0.00779632
-0.00286101
0.00154854
0.0114904
0.00351852
0.000853439
0.00162207
-0.000653465
0.00751603
0.00883721
-0.000928372
0.00232622
0.00796585
0.00316125
-0.00108008
0.00029327
0.00137461
0.00231012
0.000393108
0.000127501
9.56983e-05
0.000245622
0.000306596
0.000292731
0.000430303
0.000655494
0.000528777
0.000290943
0.000154532
1.50863e-05
4.32988e-05
6.34015e-05
0.000559303
0.00189726
0.00275139
0.00327454
-0.000190816
0.00261172
0.0192957
-0.000245054
0.00341846
0.00473003
0.00965578
0.00538876
0.000816667
-4.57994e-05
-3.45215e-06
0.000292168
-2.70789e-05
0.00110768
0.000937439
-0.000169336
0.00100217
0.00189773
0.000583175
7.9063e-05
0.00028637
0.000773681
0.000535066
3.26044e-05
2.16867e-05
2.91311e-05
2.75942e-05
1.14395e-05
9.9549e-06
2.93729e-05
4.99089e-05
3.56609e-05
2.10963e-05
3.93509e-06
5.88181e-06
1.51271e-05
5.68748e-05
0.000199837
0.000223707
0.000280731
0.000798654
-0.000683866
0.00695487
0.00738966
0.00112167
0.00458041
0.0035607
0.000950563
0.00012188
2.08459e-05
1.42542e-06
1.83486e-06
1.56869e-05
-6.11464e-07
6.86464e-05
7.28342e-05
-7.72192e-06
6.82091e-05
0.000106976
3.70045e-05
2.80878e-05
5.30308e-05
6.07005e-05
1.8964e-06
1.95056e-06
2.56368e-06
2.00765e-06
1.9723e-07
6.25776e-08
1.80375e-07
8.25293e-07
1.63774e-06
5.04131e-07
2.35825e-06
4.61922e-06
4.9504e-06
1.23073e-05
2.97016e-05
1.00499e-05
-5.44098e-06
0.000141162
9.89351e-05
0.000917251
0.00294896
0.000209085
0.0017619
0.000982537
0.000174995
1.35393e-05
7.54974e-07
4.96711e-07
3.97608e-09
1.34017e-07
6.5e-07
1.41049e-07
1.56088e-06
3.68567e-06
-1.45876e-07
2.50496e-06
3.53864e-06
1.96837e-06
1.50009e-06
2.71943e-06
1.37029e-07
1.94069e-07
1.76264e-07
1.05178e-07
1.52366e-07
9.98801e-10
5.55046e-09
7.28099e-11
8.70503e-08
1.19105e-07
2.69548e-07
2.80566e-06
7.98508e-07
2.04708e-06
4.22524e-06
8.25196e-07
1.68776e-06
1.97033e-06
5.13628e-05
3.31766e-05
0.000500911
3.26244e-05
0.000384345
0.000216226
2.74565e-05
2.09288e-06
-6.23684e-08
6.69075e-09
1.09858e-07
1.13465e-09
1.24007e-09
2.12773e-09
9.57059e-08
7.4769e-09
9.80661e-08
1.11502e-09
1.02921e-07
9.46606e-08
1.22968e-07
9.51073e-08
5.98889e-11
1.48973e-08
2.1918e-08
1.55652e-09
1.19008e-10
2.8298e-12
6.7944e-11
1.47648e-10
2.98275e-10
9.11107e-10
9.23622e-09
-6.68331e-08
1.07856e-07
-6.0563e-08
6.35278e-07
1.68529e-07
1.04684e-07
2.2467e-07
3.29264e-06
2.62712e-07
4.05208e-05
5.62321e-06
4.36931e-05
3.00696e-05
3.03388e-06
-2.72163e-08
9.26864e-08
2.02046e-10
7.41253e-12
9.37064e-12
2.19398e-12
6.40363e-12
-1.32575e-12
8.78398e-12
9.08654e-13
2.81759e-12
3.14575e-13
1.57978e-10
1.21969e-10
1.42185e-10
1.11404e-11
4.78337e-11
5.89486e-11
5.0504e-12
-8.03945e-13
4.88958e-12
-2.0824e-12
1.44117e-12
3.47949e-12
5.48697e-11
-1.08401e-10
6.23684e-08
5.5447e-10
8.54032e-08
7.09532e-08
6.43787e-08
3.15503e-10
8.14986e-09
8.47484e-08
-8.81287e-08
1.60411e-06
7.10141e-07
2.40844e-06
2.27963e-06
2.04131e-07
7.77999e-08
5.62615e-11
-1.09658e-12
-4.36157e-12
-8.05622e-13
-2.73923e-13
-3.23168e-12
2.99946e-12
1.24421e-12
-4.53869e-13
-2.73968e-13
-5.0243e-13
-1.92603e-12
5.1077e-14
1.43951e-12
4.83652e-13
-2.08414e-12
4.97001e-12
-9.79491e-13
-6.23928e-14
-4.37198e-12
-1.51167e-12
-1.58302e-12
-2.8806e-12
2.38957e-12
5.8067e-11
1.30116e-10
1.82559e-10
5.30162e-10
1.9493e-10
3.27266e-12
5.36326e-11
9.91003e-11
1.63344e-10
5.45662e-08
6.01096e-08
8.02339e-08
7.61296e-08
6.07941e-08
5.0554e-08
7.07148e-11
5.72901e-12
-1.2315e-12
-1.32443e-12
1.04073e-12
1.85592e-12
-7.00888e-13
-2.8613e-12
-1.54591e-12
-1.19925e-12
-1.23301e-12
2.28081e-12
-7.61255e-13
-3.12369e-13
-1.13934e-12
-1.33775e-13
5.63312e-13
-4.55138e-12
2.70335e-12
5.77932e-14
2.43563e-12
-2.28767e-13
2.78359e-13
3.38547e-12
-1.08762e-12
-4.98703e-13
2.1553e-12
1.55112e-12
2.75671e-12
-2.90166e-12
-7.12411e-13
-5.58299e-13
1.68298e-12
2.07203e-12
8.52236e-13
5.01932e-12
3.11682e-12
7.05467e-11
3.36145e-11
2.65943e-13
1.27552e-12
-2.70609e-12
9.25835e-13
-1.98354e-14
-8.96181e-14
4.81614e-13
1.38019e-12
2.89953e-12
-5.16927e-14
1.81429e-12
3.23747e-12
-4.28293e-15
-2.39815e-13
1.18516e-12
8.22797e-13
3.7981e-13
-4.55324e-13
3.12353e-12
-2.48734e-12
-7.23315e-13
-3.14754e-13
3.28524e-13
-9.0645e-13
-6.89048e-13
-1.0892e-13
-6.40463e-13
-1.81425e-12
1.83294e-12
-6.50468e-14
2.22931e-12
3.18933e-13
4.23365e-14
-1.12859e-12
-2.23798e-12
3.13246e-12
-4.65374e-13
-2.54911e-12
2.33759e-12
2.30051e-12
7.37198e-13
2.66536e-12
-4.09314e-12
2.19421e-12
-4.47207e-13
-9.65338e-13
8.1127e-13
-1.18209e-12
-4.12091e-13
-1.13933e-12
6.04415e-13
-4.01904e-12
-9.42386e-13
-6.98371e-13
-9.32864e-13
-7.9038e-13
-8.15489e-13
5.92616e-13
-6.29267e-13
7.02592e-13
1.10746e-12
-6.46446e-13
1.04471e-13
6.62034e-13
-2.82277e-13
-5.98266e-14
-1.11521e-12
1.3588e-12
-6.77614e-13
9.35855e-13
-2.22113e-13
1.81587e-12
-6.4998e-13
1.79143e-13
7.49855e-13
-1.65987e-12
-3.41228e-13
8.52968e-13
-3.60785e-13
-1.43391e-12
5.37117e-13
-1.04788e-12
2.88249e-12
-1.38736e-13
5.49489e-13
-5.66474e-13
6.77574e-13
2.1393e-13
-1.30628e-13
-6.50736e-13
-5.50175e-13
1.8647e-12
-8.42341e-13
9.94788e-13
1.67368e-13
8.46316e-13
1.28458e-13
3.20414e-14
-2.10746e-13
-1.12789e-12
8.01865e-13
-1.67697e-12
1.04571e-12
4.42374e-13
-2.54894e-13
-3.04129e-13
7.56503e-13
6.26476e-13
2.86401e-13
-2.87315e-14
6.73946e-13
-1.46642e-12
-3.17225e-13
-1.09986e-12
1.22056e-13
8.29555e-13
-5.2151e-13
8.85194e-13
1.13584e-13
2.112e-12
8.30698e-13
-2.41956e-13
-7.66125e-13
8.93799e-13
-7.45691e-13
2.23662e-13
5.92874e-13
1.39415e-12
-5.23221e-13
9.83315e-13
1.18764e-13
-9.64732e-13
1.73365e-13
-1.25418e-12
-2.68401e-13
-1.77463e-13
2.78092e-13
-2.06967e-13
-4.00255e-14
2.20734e-13
-1.62281e-12
1.5041e-14
1.51926e-12
-1.15069e-12
-2.63831e-13
4.16735e-13
-1.06841e-12
-1.3768e-13
-7.59593e-14
4.80283e-13
-1.16501e-13
1.15872e-12
9.04599e-13
-4.33311e-13
-1.19818e-13
-3.2239e-13
1.94828e-13
-1.11253e-12
-5.52592e-13
-7.0778e-13
-1.13806e-12
2.2785e-12
-1.49586e-12
1.00389e-12
-6.45412e-13
-2.16944e-14
-2.3064e-13
-9.51851e-13
-9.53383e-14
-1.83579e-12
-1.26624e-12
1.48118e-12
3.40319e-13
7.9875e-13
6.1929e-13
1.69333e-14
-1.64877e-13
-1.61147e-13
2.16421e-13
-4.22457e-13
1.1089e-12
1.26019e-13
-1.94033e-12
1.80601e-12
-5.89003e-13
8.8364e-13
-2.27602e-13
-8.23991e-13
-8.91658e-13
-5.16904e-13
-6.59837e-13
3.88247e-13
-1.31857e-12
-7.99692e-28
-6.42504e-13
-6.61207e-13
9.03317e-13
-1.58726e-13
2.53263e-13
-3.26839e-13
3.52491e-13
-2.72624e-13
1.41889e-12
-8.38142e-13
1.02052e-12
1.52412e-12
-6.67555e-13
7.83095e-29
-3.04801e-13
2.26837e-12
7.35203e-13
-1.30075e-12
4.82202e-13
-1.29094e-12
-2.62728e-13
-3.03639e-13
3.28858e-22
-2.10112e-13
-8.56462e-13
4.92355e-13
-1.07372e-12
-2.18293e-13
2.26437e-13
-6.8893e-13
-3.39259e-13
-3.82866e-13
1.24518e-13
7.86723e-13
6.31286e-14
1.80864e-12
-2.19835e-13
-1.15309e-12
1.40855e-12
-7.57003e-13
3.29903e-13
1.93619e-13
-7.79109e-13
4.00854e-13
2.28846e-13
3.56675e-13
1.30469e-12
7.90742e-13
-1.32887e-13
3.67435e-13
9.96316e-14
-7.12699e-13
1.23865e-13
-1.0073e-13
-9.69474e-14
-9.14196e-13
-5.63053e-14
1.70732e-12
1.12918e-12
1.18287e-12
-2.40005e-13
1.06862e-13
-2.35551e-13
9.81865e-13
3.47639e-13
-2.28703e-13
9.64535e-14
2.96179e-13
9.64519e-13
7.21904e-13
1.38936e-13
1.87182e-13
7.17282e-13
1.68013e-13
-6.65738e-13
-1.3613e-13
-9.84491e-13
9.20755e-13
-8.62279e-15
-4.82357e-13
-3.88665e-22
9.8534e-13
6.24132e-13
1.29375e-13
-4.09232e-13
-3.1063e-13
-1.06357e-12
-5.95582e-13
-7.14369e-13
1.13492e-12
-8.57125e-13
1.73867e-12
-5.77254e-13
2.99282e-13
-3.18178e-13
1.06201e-12
6.85168e-13
-5.70712e-14
-1.71606e-13
-2.21036e-13
3.2493e-13
-1.02742e-12
8.88818e-13
-7.73653e-13
-7.11259e-13
3.35324e-13
5.36262e-14
4.82874e-14
-3.99222e-13
3.8314e-13
-3.51986e-13
1.98689e-13
-2.72052e-13
-1.15273e-13
9.53259e-13
-1.73586e-13
5.19329e-13
-2.35373e-14
-3.10997e-13
1.58539e-12
1.50909e-13
5.06775e-13
-4.89375e-13
-6.61801e-13
1.65417e-13
-3.20444e-13
4.45944e-13
-1.82611e-13
-1.86542e-13
-3.22261e-13
1.60033e-13
-6.50153e-13
-3.49652e-13
-5.63702e-13
-4.83974e-13
8.85153e-14
-3.16902e-13
8.16856e-13
-5.77076e-13
-7.8002e-13
8.02823e-13
4.49569e-13
-3.67028e-13
1.147e-12
-2.60249e-13
-6.43474e-13
-7.0851e-14
-2.03234e-13
6.27048e-13
-4.62017e-13
-2.46734e-13
-1.67751e-13
-4.26587e-13
1.76267e-13
4.13698e-13
-8.39584e-13
-1.05702e-13
5.35697e-14
5.98343e-13
-7.16647e-13
3.74716e-14
-2.1053e-13
-2.04293e-15
4.29821e-13
5.31979e-13
-1.14079e-13
-5.901e-13
-3.24128e-13
-5.81339e-13
2.68406e-13
-5.75746e-13
8.25888e-13
-3.85157e-13
9.44991e-14
-7.16331e-13
-1.19789e-12
7.09425e-14
1.18879e-13
-4.75504e-13
3.37165e-13
-3.24435e-13
2.96657e-13
4.93693e-13
-4.13512e-13
2.97186e-13
-3.99821e-13
2.19576e-13
-2.15841e-13
-1.32745e-12
-2.59727e-13
3.36765e-13
5.18122e-13
3.20317e-13
-9.3793e-13
2.35031e-14
1.20117e-12
-2.56233e-14
-8.93855e-13
-6.41862e-13
9.93345e-13
-4.32659e-13
-3.32293e-14
-2.47938e-13
-8.82944e-13
4.05802e-13
-3.97099e-13
5.78302e-13
-3.74242e-13
3.33596e-14
2.74325e-13
1.26396e-13
-3.35407e-13
1.25622e-13
2.87e-13
-2.54538e-13
4.31009e-13
-1.62671e-12
2.00979e-12
-4.7012e-13
-4.94722e-13
-4.69168e-13
-4.87912e-13
-108.054
-108.773
-103.816
-98.6905
-101.835
-112.638
-124.231
-129.021
-121.969
-113.786
-110.256
-108.843
-108.748
-109.629
-110.831
-112.741
-116.342
-122.413
-129.295
-128.715
-112.69
-93.3914
-85.9901
-84.7429
-83.491
-84.0574
-85.8133
-86.2851
-81.5354
-73.5343
-69.1798
-69.6288
-75.9021
-104.487
-178.384
-241.328
-183.723
-118.381
-106.046
-106.258
-58.3397
-65.8624
-70.4316
-75.3865
-85.5601
-101.559
-119.047
-127.612
-122.458
-114.801
-116.735
-129.164
-145.921
-164.134
-187.121
-217.074
-250.882
-284.406
-317.266
-340.552
-328.333
-280.324
-239.512
-236.694
-267.126
-310.943
-350.028
-371.664
-371.211
-355.784
-344.392
-349.475
-357.78
-352.888
-345.075
-305.365
-193.407
-94.8445
-54.6346
-50.9836
33.7316
36.339
37.5084
38.424
40.8759
44.984
50.0885
53.428
52.3182
49.2295
47.9819
50.0938
54.3654
59.2462
65.2438
73.2579
82.7771
92.2921
100.032
102.914
97.355
84.5616
72.4527
68.3701
72.6858
80.9547
87.9795
91.9238
93.3788
93.0632
92.7906
93.7479
94.482
95.2744
103.59
113.578
92.7011
58.146
37.7175
32.3103
3.14941
3.72231
4.19473
4.25816
4.27413
4.64463
5.4495
6.15128
6.27857
6.09504
5.99083
6.19815
6.65217
7.17726
8.01232
9.53351
11.5404
13.7424
16.6726
20.0453
21.3009
18.4099
14.0373
12.2555
13.8214
17.5058
21.5482
24.6105
25.8769
25.1954
23.762
23.219
23.3885
23.5481
24.1569
22.4879
16.1525
9.08899
4.90467
3.23825
0.0298923
0.0243397
0.0150294
-0.00466773
-0.0128592
0.00978177
0.0738774
0.138882
0.153407
0.138972
0.106582
0.0754379
0.047562
0.0323765
0.0443222
0.0920231
0.146517
0.180785
0.333417
0.758542
1.02189
0.877235
0.459355
0.183607
0.194307
0.403218
0.714965
0.99939
1.13614
1.06308
0.850532
0.733888
0.740782
0.775573
0.976385
1.06052
0.702514
0.249583
0.0849
0.0468138
-0.000781151
-0.000671872
-0.00329975
-0.00423933
-0.0011114
-0.000200933
-0.00153311
0.0054239
0.0048334
0.00166869
-0.00171281
-0.00939974
-0.0111756
-0.00857539
-0.00575894
-0.00314027
0.000851937
0.00102109
-0.00714446
0.0358601
0.0821463
0.0319177
0.010825
-0.0214081
-0.0297502
-0.0148996
0.00181599
0.0191817
0.0272185
0.0168925
0.00574815
-0.00021799
-0.00127341
-0.00412025
0.00437289
0.0304453
0.0153617
-0.00195969
-0.0109828
-0.00489371
0.000355984
0.00170951
0.00383785
0.00509694
0.00500185
0.00337923
0.00112687
0.000577644
0.00214789
-0.000810386
0.00132751
0.00295778
0.00406397
0.00552018
0.00519623
0.00280837
0.000956956
0.000475008
0.00182518
-1.46034e-05
0.0237235
0.00504615
0.0026114
0.00863132
0.00781556
0.00391255
0.000429219
0.000735721
0.00328791
0.00252384
8.99522e-05
0.000399689
0.000510813
0.00157359
5.72136e-06
0.0015112
-0.000326216
0.00135963
0.00208514
-0.000192033
0.00032827
0.000466686
0.00126869
0.00171794
0.0012533
0.000677683
0.000314247
6.33678e-05
0.000725184
0.000386627
-3.87498e-05
0.00142046
0.0020576
0.00219807
0.0019345
0.000898348
7.74471e-05
2.79771e-05
0.000520377
0.00075608
0.00452124
0.00523187
0.00111303
0.00364301
0.00348187
0.00116131
9.01176e-05
3.08623e-05
8.05307e-05
0.000146996
0.000111489
2.03748e-05
1.70112e-05
-2.89846e-05
0.000329982
-9.94054e-06
0.000600651
-0.000138709
0.0015494
0.00101594
0.000122372
0.000105495
0.000237548
0.000309458
0.000186219
7.57647e-05
4.45221e-05
1.53016e-05
7.23254e-05
0.000229369
-1.69786e-05
0.000207435
0.000476044
0.000546827
0.000414424
0.000157502
2.96329e-06
3.44988e-05
5.83325e-05
0.000411631
0.000729357
0.00181069
0.000554183
0.0008865
0.000593177
0.000166557
1.308e-05
1.98503e-06
1.37412e-06
1.58743e-07
5.3636e-07
-6.8317e-08
2.55213e-06
1.63265e-05
1.35882e-05
5.25212e-06
0.000123601
1.21354e-05
0.0001395
0.000267976
2.32593e-05
1.79284e-05
3.49167e-05
4.06239e-05
2.11538e-05
7.86203e-06
5.33338e-06
3.84702e-06
1.26445e-06
3.9266e-05
1.81697e-05
1.3286e-05
8.44491e-05
0.000104115
6.79739e-05
2.56361e-05
2.05445e-06
7.18715e-06
8.04626e-06
6.70035e-05
0.000115904
0.000421091
0.000138689
0.000184136
0.000109294
2.24518e-05
1.41954e-06
4.58213e-08
1.17425e-07
1.7948e-08
2.80972e-10
5.12847e-08
1.88616e-07
7.98736e-07
-5.68316e-09
2.63449e-06
2.77402e-06
1.14798e-05
8.38192e-07
2.35127e-05
1.5188e-06
3.63046e-06
6.43417e-06
3.91837e-06
1.95527e-06
4.04303e-07
1.42851e-07
6.56086e-07
-1.52498e-07
2.4759e-06
5.23576e-06
7.59908e-07
1.19935e-05
1.56932e-05
7.34464e-06
2.4763e-06
5.6655e-07
1.01196e-06
1.42591e-06
8.29383e-06
1.00289e-05
7.05868e-05
1.92855e-05
3.76652e-05
2.06648e-05
2.88193e-06
2.13578e-07
1.13405e-07
1.50204e-08
8.06248e-11
8.00503e-11
5.15599e-10
2.2011e-09
3.59417e-10
4.46272e-08
8.28536e-08
-1.46808e-07
9.57665e-07
-8.99362e-08
5.53231e-07
1.21966e-07
-1.06076e-07
-9.24357e-08
2.49319e-07
9.82074e-08
6.13267e-09
2.07396e-08
1.49628e-09
1.04929e-07
1.36521e-07
2.77676e-07
3.37387e-08
1.12906e-06
7.02211e-07
2.37805e-07
1.29433e-07
8.64438e-08
6.80893e-09
-5.6128e-08
3.9316e-07
5.86524e-07
7.52894e-06
1.78912e-06
4.97149e-06
2.36881e-06
2.53399e-07
1.14844e-07
5.46171e-10
-2.61893e-13
-2.60605e-12
-1.8294e-12
-1.22797e-12
9.23438e-12
3.51494e-11
4.9006e-10
9.52383e-11
5.38122e-08
4.80338e-09
6.9443e-08
9.98883e-09
6.23157e-11
8.61154e-08
1.36895e-07
5.33434e-09
6.48946e-10
4.34958e-11
2.53725e-12
5.66242e-11
1.83662e-10
4.90458e-11
2.7642e-08
2.55204e-10
7.68584e-09
6.85673e-08
6.37007e-08
1.25702e-10
3.58896e-10
1.77375e-10
7.24445e-08
1.89339e-08
2.36511e-08
3.56973e-07
1.03939e-07
3.97907e-07
1.58494e-07
8.28914e-08
3.1852e-10
-2.15092e-12
3.38809e-12
-1.56119e-12
1.52026e-12
3.65762e-12
1.1349e-12
6.59504e-12
-3.22966e-13
2.68915e-17
2.35053e-12
2.63995e-13
1.33998e-10
4.81088e-10
2.51322e-11
8.59213e-11
1.5733e-10
1.86243e-11
6.59164e-13
-3.37208e-12
1.14091e-12
-8.3427e-13
6.66458e-12
-2.89821e-12
1.26995e-12
1.63583e-11
1.45996e-10
7.26152e-11
3.39374e-12
4.79383e-12
-6.10618e-13
3.50967e-12
7.7778e-12
1.63485e-12
6.16113e-11
4.89075e-08
3.30475e-10
6.57248e-09
4.98006e-08
2.1458e-10
-3.59418e-12
3.46644e-12
2.31629e-12
3.92107e-13
-2.99275e-12
-1.16853e-12
-1.27801e-12
-2.5464e-12
-2.27236e-13
1.11625e-12
-2.34291e-12
3.80806e-12
-3.11497e-12
-7.4905e-14
5.90274e-13
2.48694e-12
-4.12694e-13
2.82485e-12
5.0502e-13
1.04087e-12
-4.74609e-13
-2.05667e-12
-1.38484e-12
1.74442e-12
-6.14602e-13
-5.8627e-13
3.92987e-12
-1.06196e-12
-8.94561e-13
-1.48829e-12
1.07316e-12
-7.79665e-13
1.22926e-12
9.98929e-13
1.55607e-12
4.57643e-13
1.35813e-11
7.7214e-11
9.53213e-12
-2.33863e-12
2.99232e-12
-2.23661e-12
1.15861e-12
-5.58242e-13
3.11468e-12
-8.76505e-13
-1.20721e-12
-6.80969e-13
1.78326e-12
9.54755e-13
-5.80546e-13
-2.7822e-12
1.65549e-12
7.09929e-13
8.86538e-13
-2.63052e-12
-7.1967e-14
-2.76029e-12
-6.02162e-13
-6.79526e-14
-7.53309e-13
1.99257e-12
1.54358e-12
-6.57911e-15
-4.20326e-14
1.85213e-12
-4.00359e-12
2.19219e-12
-5.04674e-13
-9.54735e-13
2.20739e-12
1.88492e-12
1.32589e-12
-1.60649e-12
-9.28143e-13
9.71891e-13
-8.13469e-13
1.86624e-12
-8.88435e-13
1.70364e-12
-2.29499e-12
3.92148e-12
-1.09406e-12
3.73774e-13
-1.1642e-12
9.21633e-13
1.46901e-12
1.2232e-12
-1.66809e-12
-6.95606e-13
1.54773e-12
2.28275e-12
-9.42656e-13
-5.1006e-13
-6.58401e-13
1.69579e-12
6.71267e-13
2.17905e-12
-7.94819e-13
-3.4648e-13
5.83819e-13
-6.51073e-13
-1.14624e-12
5.3147e-13
7.02028e-14
-9.94515e-13
1.64355e-12
-1.18863e-12
8.78152e-13
2.45479e-13
-1.52208e-13
-8.75835e-13
-4.18599e-13
8.64978e-13
7.34417e-13
2.59014e-14
-6.47965e-13
-8.52777e-13
1.70538e-12
-1.90599e-14
2.36063e-12
-1.97986e-12
-7.33289e-14
2.10076e-13
-8.35301e-14
-7.39339e-13
-6.27674e-13
-1.03154e-12
9.38546e-13
-1.84571e-12
-7.12149e-13
8.2185e-14
-1.10111e-12
-1.19996e-13
-1.33767e-13
-8.81876e-13
-3.25176e-14
-7.57605e-13
-2.80124e-14
1.70199e-12
-1.26069e-12
7.53906e-13
1.04657e-12
-3.89587e-13
-2.55977e-13
-3.9888e-13
-1.99441e-12
-1.48269e-13
-3.86651e-13
-3.20362e-13
-5.07326e-13
-7.39692e-13
6.82851e-13
-4.74281e-13
-3.9216e-13
-4.63497e-13
4.38432e-13
8.38774e-13
-1.72202e-12
-4.33062e-13
-6.32634e-13
-5.54607e-13
-9.89338e-13
1.27367e-12
-7.74315e-13
-6.11182e-13
-2.00857e-27
2.00653e-13
-2.94796e-13
3.80828e-13
-1.30314e-13
3.96238e-13
1.77126e-12
-4.22578e-13
4.41258e-14
-1.02694e-28
-7.84191e-13
-4.26384e-13
1.16273e-12
-7.35307e-13
-4.05016e-13
-6.49459e-13
3.13186e-13
-1.61441e-13
2.55644e-13
-1.53103e-13
-1.46522e-13
-2.44632e-13
1.88348e-13
-5.37297e-13
2.11841e-13
1.10109e-12
1.11297e-12
-6.49641e-13
3.7467e-13
6.64908e-14
-1.92644e-13
-4.67596e-13
6.84497e-13
-8.85708e-13
-6.30193e-14
5.65388e-13
-2.22689e-13
-5.24641e-13
2.42239e-13
-6.18662e-14
-4.23715e-13
-8.08534e-13
6.9655e-13
1.32499e-12
-3.50763e-13
-1.29787e-12
-8.93431e-13
-5.57333e-13
-6.61914e-13
6.82596e-14
8.47884e-13
-2.83372e-13
-7.66049e-13
1.95147e-28
-1.60966e-13
2.48527e-13
-4.61797e-13
-4.15064e-13
-2.86776e-13
8.58749e-14
1.46211e-13
-2.16352e-13
-6.99408e-13
-3.44426e-13
-1.11246e-13
-6.52998e-13
5.44013e-13
1.44481e-12
-3.79003e-13
-2.68936e-13
-3.52248e-13
-1.33223e-14
-1.82068e-12
1.60715e-12
-7.71876e-13
-1.05722e-12
8.75269e-13
-1.10486e-12
5.18744e-13
-1.67105e-13
1.16343e-12
2.33097e-12
-1.20082e-12
-7.39322e-13
8.98326e-15
7.93656e-14
5.42394e-13
1.24225e-12
-5.68417e-13
-2.74211e-13
7.02094e-13
-3.74585e-15
8.88958e-13
-1.29344e-13
1.76222e-13
-2.40488e-13
-2.7911e-13
3.89355e-13
-5.43286e-13
-7.06638e-13
1.47082e-12
-4.03495e-13
4.00289e-13
3.73514e-13
-8.91762e-13
1.40381e-12
-1.56367e-13
-9.36139e-13
1.85281e-12
-9.38769e-13
2.28978e-13
-4.90044e-13
4.31146e-13
5.31028e-13
-9.75305e-13
1.60795e-12
-7.17272e-13
-1.18687e-13
-8.2883e-13
-4.64872e-13
-5.46201e-13
3.34646e-13
-5.01702e-13
-1.29701e-12
-1.39363e-12
3.09423e-13
-1.73969e-13
-1.56027e-13
-3.4852e-13
-1.80957e-13
-6.01018e-13
-7.17646e-13
8.14964e-13
-2.9717e-13
4.30923e-13
-6.8594e-13
5.62609e-13
-4.71584e-13
-6.14735e-13
-5.77497e-13
4.24396e-13
-8.31574e-13
2.80227e-13
-8.89373e-13
6.43082e-14
1.45658e-13
6.13202e-13
-3.24571e-13
-1.29435e-12
1.45548e-12
-2.5291e-13
1.04496e-12
-1.19481e-12
1.41274e-12
1.32643e-12
-1.83752e-12
2.71468e-13
2.54883e-13
8.04288e-13
-2.35244e-13
1.16046e-13
-8.23097e-13
1.77681e-13
3.04815e-13
2.33282e-13
-1.4287e-12
1.90039e-13
1.21316e-12
-9.70664e-13
-1.04252e-13
4.48848e-13
-8.22291e-13
-1.34279e-12
-2.46062e-28
3.30953e-13
-1.93174e-13
-8.67447e-14
-1.43047e-13
-3.4788e-13
7.28339e-13
-1.14137e-12
4.44969e-13
-2.1179e-13
-2.13691e-13
-7.82673e-13
-4.17502e-13
-6.17698e-13
-3.23132e-23
-7.69508e-14
4.66186e-15
-6.73639e-13
-3.60237e-13
4.10802e-13
-8.85128e-13
-3.05704e-13
-1.24162e-13
7.76442e-13
-4.68015e-13
1.25895e-12
-4.23338e-13
1.31761e-12
-4.14733e-13
-8.98122e-14
-3.95797e-13
-4.66604e-13
1.84836e-12
-3.00391e-13
-3.68334e-15
5.03775e-15
5.29737e-13
1.77513e-12
8.14492e-13
-2.93356e-13
-2.92955e-13
-5.08816e-13
6.78562e-13
-1.24421e-13
-3.88702e-13
8.38359e-13
-9.63597e-13
1.55412e-12
-1.20436e-13
-2.68342e-13
-4.0584e-13
3.50907e-13
-3.30108e-13
8.45861e-13
-6.33024e-13
6.84841e-13
-3.78886e-13
7.70127e-14
2.53432e-13
8.49794e-13
7.2613e-13
-2.38007e-13
-8.58987e-14
5.58076e-13
-4.98469e-13
1.95337e-13
-3.39359e-13
1.27316e-12
-1.11585e-13
-1.79906e-13
-2.42166e-13
7.92763e-28
-6.78518e-13
1.00003e-13
-8.8855e-13
-7.33731e-13
-6.81727e-13
-2.52185e-13
-1.44427e-13
-2.71072e-14
-3.17573e-13
1.16856e-12
1.82173e-13
-3.86034e-13
-6.0824e-13
-5.36091e-13
1.76865e-12
5.11629e-13
-8.29712e-13
8.73917e-13
7.6747e-13
1.15503e-12
-5.02926e-15
5.53307e-13
6.3956e-13
9.1982e-13
-2.05047e-13
-6.44492e-13
6.95125e-13
-8.57739e-13
6.55975e-13
-3.19751e-13
4.89888e-13
-3.43783e-13
2.12291e-13
-1.83795e-13
-3.31301e-13
-5.39396e-13
1.65807e-13
1.05319e-12
-7.70388e-13
-2.08935e-13
-2.01031e-14
2.7412e-13
9.09003e-13
-114.567
-108.534
-97.9938
-93.823
-97.3592
-103.805
-109.233
-112.165
-111.456
-106.96
-101.261
-96.3812
-92.4775
-89.5258
-88.1068
-86.6324
-85.3077
-86.8344
-95.1448
-114.441
-136.822
-136.649
-120.424
-113.952
-110.442
-104.495
-96.7069
-86.2883
-76.0829
-70.9107
-73.7933
-86.5738
-108.21
-136.956
-173.152
-197.217
-177.156
-136.754
-116.165
-113.675
-68.0797
-71.7844
-78.0957
-88.4601
-103.627
-121.521
-137.712
-147.906
-154.299
-158.526
-162.961
-171.643
-188.141
-212.763
-242.807
-272.623
-299.709
-328.04
-360.039
-384.165
-379.08
-329.659
-251.252
-197.136
-193.472
-218.423
-245.542
-262.391
-272.003
-286.452
-313.61
-347.49
-369.3
-361.026
-324.835
-268.734
-195.397
-128.792
-85.7375
-69.0451
34.7427
35.2873
36.3275
38.3459
41.6308
45.8289
50.3135
53.5741
55.9283
57.4731
58.5353
59.698
62.0539
66.5103
72.9665
79.6062
85.1859
90.6095
96.6191
102.125
105.06
100.281
84.2859
68.2009
62.7011
65.2259
69.5945
72.6491
74.8859
78.2681
83.8882
91.1957
98.2346
102.317
103.89
102.829
90.4292
68.4676
47.8211
37.1239
3.4788
3.94184
4.52822
4.85902
5.24481
5.91087
6.75081
7.74982
8.88115
9.77054
10.1783
10.2541
10.499
11.3166
12.712
14.2487
15.4672
16.4717
18.1087
20.8208
23.5399
23.393
18.6923
13.2287
11.6877
13.919
17.3646
19.5887
19.9508
19.5663
19.9838
21.6599
23.6183
24.53
23.7455
20.5831
15.3844
10.3689
6.62447
4.153
0.0748328
0.0457969
0.0296044
0.0268778
0.0396403
0.0677416
0.107545
0.157591
0.218366
0.27464
0.286842
0.249413
0.208853
0.197442
0.218869
0.259686
0.290507
0.290345
0.353502
0.634242
0.955967
1.1234
0.877634
0.439981
0.32109
0.484596
0.766453
0.941443
0.874084
0.683615
0.598932
0.711339
0.883802
0.981412
1.01002
0.890181
0.579492
0.294627
0.213675
0.144365
0.00132517
-0.00139072
-0.0127434
-0.0194903
-0.0191579
-0.0164081
-0.0120725
-0.00758113
-0.00399275
-0.00344097
-0.00796823
-0.0171755
-0.0258094
-0.027444
-0.0215221
-0.0125309
-0.00368366
0.000391546
-0.00115392
0.00563689
0.0660836
0.0504921
0.0287424
-0.00810768
-0.023436
-0.00979853
0.00643294
0.0106789
0.00095105
-0.00775881
-0.00900281
-0.0044417
0.00855984
0.0167392
0.0176095
0.0134555
0.00172426
-0.00732972
0.000533292
0.0120002
0.000605846
0.00170089
0.00327372
0.00364662
0.00359691
0.0025605
0.0014953
0.000916416
0.000807336
0.00106177
0.00169811
0.0032278
0.00402248
0.00404978
0.00505301
0.00434939
0.00145291
0.000311432
0.00077947
0.000153127
0.00683062
0.0176284
0.000463766
0.00373638
0.00331148
0.000281047
-5.6671e-05
0.000300906
0.00102221
0.00243933
0.00295404
0.0014133
4.40499e-05
0.000294062
0.000530566
-0.000223112
0.000758435
0.00141016
-0.000149659
0.00150599
0.000304546
0.000471999
0.00207768
0.00261827
0.00263312
0.00204724
0.00135343
0.00094687
0.000687423
0.000497378
0.0005512
0.00132013
0.00282427
0.00363236
0.00279617
0.00135452
0.000397451
-1.26897e-06
7.21855e-06
0.000420373
-7.51956e-05
0.00351226
0.00133712
0.000655482
0.00208198
0.00118421
0.000414282
0.000306859
0.000390216
0.000361657
0.000208447
9.03546e-05
4.62433e-06
2.35809e-05
9.03928e-05
0.00011689
-5.28286e-05
0.000528365
0.000377492
0.000108415
6.46572e-05
6.84718e-05
0.000554758
0.000640275
0.00062623
0.000503451
0.000378493
0.00028199
0.000199034
0.000126111
7.31499e-05
0.000140473
0.000407067
0.000617351
0.000452862
0.000172703
5.53155e-05
1.2655e-05
3.07718e-06
1.71121e-05
3.93808e-05
0.000262261
0.000441973
5.56659e-05
0.000324863
0.000261905
0.000127049
7.68918e-05
4.92536e-05
1.84473e-05
3.79482e-06
6.43287e-07
4.80368e-07
4.94251e-07
5.43266e-07
1.95185e-05
1.61738e-05
1.89383e-05
4.08713e-05
2.11139e-06
1.14431e-05
8.6645e-06
0.000107572
0.000126157
0.000113965
9.95867e-05
8.71533e-05
7.16792e-05
4.07103e-05
1.62161e-05
1.11074e-05
1.33611e-05
2.8489e-05
3.60437e-05
1.9952e-05
7.65527e-06
3.2238e-06
1.14532e-06
9.36251e-08
1.77786e-06
3.6347e-06
2.32612e-05
6.34755e-05
1.00394e-05
4.27632e-05
3.86478e-05
2.37804e-05
1.17919e-05
4.52582e-06
9.70934e-07
1.15645e-07
2.21597e-08
4.43743e-10
5.38588e-10
7.03514e-08
1.75619e-07
1.28892e-06
2.54811e-07
1.18127e-06
1.32316e-06
1.82171e-06
2.37585e-06
1.70056e-05
1.9228e-05
1.49461e-05
1.32361e-05
1.15803e-05
7.8611e-06
3.87284e-06
9.91314e-07
4.11252e-07
8.26234e-07
9.61186e-07
6.86823e-07
2.07452e-07
1.13828e-07
1.39123e-07
1.18942e-07
1.01678e-07
1.07108e-07
9.32756e-08
2.42707e-06
6.93228e-06
1.44687e-06
5.04813e-06
5.2196e-06
3.14987e-06
1.28872e-06
3.05094e-07
1.37719e-07
1.96803e-09
3.18282e-10
7.52003e-11
2.14759e-11
1.76058e-11
1.46588e-10
8.2285e-08
8.98661e-09
2.5913e-08
1.11845e-06
-1.34943e-07
2.67729e-07
1.57147e-06
1.59988e-06
1.47417e-06
7.83101e-07
4.14865e-07
5.64302e-07
1.43108e-07
1.10673e-07
8.6692e-08
9.56867e-08
1.01804e-07
2.18872e-08
1.47781e-08
3.41724e-11
8.36521e-11
5.86135e-11
1.12426e-08
8.78605e-10
8.27646e-08
1.56188e-07
3.20722e-07
1.32636e-07
9.64749e-07
9.34918e-07
7.43025e-08
9.82446e-08
8.34861e-08
4.49968e-10
4.02788e-12
5.57166e-12
-1.64075e-12
-1.60404e-13
8.90182e-11
8.61564e-12
4.26565e-10
9.34294e-10
4.79893e-09
4.62396e-08
9.04185e-08
1.04601e-08
1.57756e-07
8.37525e-08
5.95124e-08
1.25602e-08
1.25121e-07
1.22402e-09
6.93108e-10
1.83178e-10
2.631e-11
5.39042e-11
1.01944e-10
3.30113e-11
2.34501e-12
-6.28211e-13
-3.55056e-12
6.54472e-12
3.25514e-12
3.98008e-11
7.82159e-10
3.89964e-08
9.0919e-08
2.942e-09
4.95448e-08
3.55698e-08
6.41343e-08
5.7696e-10
6.01469e-12
5.53638e-12
-3.08048e-12
-4.12628e-12
2.63597e-12
-1.5954e-12
2.15361e-12
2.06446e-13
7.8196e-14
4.46441e-13
7.13806e-11
5.05302e-08
8.21054e-11
5.77575e-10
2.78973e-09
6.73054e-10
1.45755e-10
6.57959e-11
4.30376e-12
7.76988e-12
-7.19545e-12
-7.37495e-12
-1.10255e-12
1.64925e-12
2.27069e-12
-1.93086e-12
1.16782e-12
2.30668e-12
5.1404e-12
-5.2607e-12
-1.76655e-12
-9.36783e-13
-8.98167e-15
1.87625e-11
2.52591e-10
4.29402e-11
7.00624e-10
2.52154e-10
8.48545e-12
-2.78095e-12
-2.75743e-12
-3.04364e-12
1.72175e-12
4.91448e-13
1.65564e-13
6.01155e-13
-1.64967e-12
-1.06754e-12
4.72846e-14
-1.12883e-13
5.82295e-13
6.50028e-11
8.96513e-13
2.6336e-11
1.691e-11
-1.13231e-12
5.95491e-12
9.60253e-13
-5.04696e-13
-1.75686e-12
8.77301e-13
5.28067e-12
-4.06449e-13
6.80817e-13
-3.0591e-12
-7.47123e-13
3.36788e-13
-2.12061e-12
-4.32731e-12
2.39249e-13
3.68575e-13
1.49791e-12
4.88793e-13
2.55036e-12
-8.10158e-13