/*--------------------------------*- C++ -*----------------------------------*\
| =========                 |                                                 |
| \\      /  F ield         | OpenFOAM: The Open Source CFD Toolbox           |
|  \\    /   O peration     | Version:  5.0                                   |
|   \\  /    A nd           | Web:      www.OpenFOAM.org                      |
|    \\/     M anipulation  |                                                 |
\*---------------------------------------------------------------------------*/
FoamFile
{
    version     2.0;
    format      ascii;
    class       volScalarField;
    location    "50.4676134421789371";
    object      p_rghMean;
}
// * * * * * * * * * * * * * * * * * * * * * * * * * * * * * * * * * * * * * //

dimensions      [0 2 -2 0 0 0 0];

internalField   nonuniform List<scalar> 
60000
(
0
-5.04358e-05
-0.000116301
-0.000149511
-0.000130558
-8.60012e-05
-4.3872e-05
-2.66769e-05
-1.60568e-05
-1.17487e-05
-5.47248e-06
-7.14961e-06
-8.63925e-06
-1.41761e-05
-3.78253e-05
-7.93588e-05
-0.000103459
-6.02761e-05
7.48877e-05
0.000235096
0.000329965
0.000299487
0.000155597
-6.13649e-05
-0.000180899
-0.000151135
-1.57294e-05
0.000109907
0.000176361
0.00020083
0.000206577
0.000198466
0.000172066
0.000139122
0.000120285
0.00012372
0.000140277
0.000126997
7.88553e-05
3.26697e-05
7.50221e-07
-4.98851e-05
-0.000116513
-0.000150947
-0.000132714
-8.732e-05
-4.44506e-05
-2.62969e-05
-1.45587e-05
-1.04342e-05
-3.71931e-06
-5.83229e-06
-8.30469e-06
-1.46453e-05
-3.81663e-05
-7.91876e-05
-0.000104412
-6.3017e-05
7.16022e-05
0.000233526
0.000330998
0.00030336
0.000161029
-5.71523e-05
-0.000181104
-0.000156081
-2.38425e-05
0.000100471
0.000166805
0.000192289
0.000200221
0.000194719
0.00017025
0.000137655
0.000117147
0.000118747
0.000135112
0.000124629
7.86645e-05
3.3897e-05
3.17995e-06
-4.69128e-05
-0.000115279
-0.000152442
-0.000136431
-8.99182e-05
-4.6703e-05
-2.71339e-05
-1.53377e-05
-9.66872e-06
-5.38239e-07
-2.73211e-06
-6.6356e-06
-1.46586e-05
-3.89249e-05
-8.09046e-05
-0.000108018
-6.91884e-05
6.53768e-05
0.000231259
0.000332939
0.000306323
0.000164244
-5.68978e-05
-0.000184682
-0.000163721
-3.24374e-05
9.37259e-05
0.000162711
0.000189477
0.000197168
0.000191383
0.000167957
0.000137122
0.000118878
0.000119212
0.000132117
0.000120543
7.66225e-05
3.45722e-05
6.54687e-06
-4.25764e-05
-0.000113393
-0.000153875
-0.00014033
-9.36622e-05
-5.01778e-05
-2.93928e-05
-1.77869e-05
-8.87414e-06
1.36546e-06
6.35879e-07
-4.40494e-06
-1.38753e-05
-3.86189e-05
-8.20067e-05
-0.000112345
-7.75657e-05
5.65091e-05
0.00022724
0.000335395
0.000309279
0.000165838
-6.02137e-05
-0.000190908
-0.000174504
-4.43905e-05
8.44246e-05
0.000158718
0.000189451
0.000197717
0.000190851
0.000167857
0.000139106
0.00012129
0.000122102
0.000132619
0.000118453
7.45595e-05
3.45603e-05
9.67626e-06
-3.83876e-05
-0.00011258
-0.000156156
-0.000144041
-9.68757e-05
-5.36564e-05
-3.23874e-05
-2.20531e-05
-9.95268e-06
2.63822e-06
3.24971e-06
-3.23209e-06
-1.35658e-05
-3.68679e-05
-8.03743e-05
-0.000114655
-8.61223e-05
4.54703e-05
0.000219923
0.000337118
0.000313482
0.000168094
-6.53024e-05
-0.000198055
-0.000188916
-6.42665e-05
6.32971e-05
0.000143029
0.000182867
0.000197929
0.000193347
0.000170642
0.000141842
0.000123278
0.000123255
0.000134094
0.000119634
7.57419e-05
3.59311e-05
1.58604e-05
-3.45309e-05
-0.000114052
-0.000160534
-0.000148
-9.86821e-05
-5.53462e-05
-3.45654e-05
-2.69429e-05
-1.24863e-05
5.79214e-06
8.32644e-06
-2.60215e-06
-1.61735e-05
-3.58599e-05
-7.56024e-05
-0.000112363
-8.96039e-05
3.41701e-05
0.000208569
0.000335197
0.00031806
0.000171974
-6.97574e-05
-0.000204114
-0.000204568
-9.11126e-05
2.93718e-05
0.000111584
0.000162057
0.000190642
0.000196395
0.000177818
0.000148311
0.000126191
0.000123299
0.00013308
0.000122328
8.17808e-05
4.26543e-05
2.97796e-05
-2.64643e-05
-0.000118388
-0.000168758
-0.000153716
-9.92638e-05
-5.38533e-05
-3.34557e-05
-2.85567e-05
-1.54581e-05
1.17028e-05
2.04572e-05
2.83559e-06
-2.05723e-05
-3.93573e-05
-7.07255e-05
-0.000105053
-8.81354e-05
2.40245e-05
0.000192547
0.000326187
0.000319742
0.000169071
-6.60546e-05
-0.000208046
-0.000221218
-0.000123065
-1.19465e-05
7.1272e-05
0.000130588
0.000173019
0.000193797
0.000185885
0.000159053
0.000132648
0.000123653
0.000130321
0.00012236
8.99263e-05
5.57563e-05
5.01279e-05
-8.79469e-06
-0.000114519
-0.00017951
-0.000163783
-0.000103084
-5.22024e-05
-2.92696e-05
-2.52148e-05
-1.55699e-05
1.89401e-05
4.0615e-05
2.12053e-05
-2.00671e-05
-4.71959e-05
-7.05224e-05
-9.63681e-05
-8.22244e-05
1.47197e-05
0.000169837
0.000306249
0.000314552
0.000170451
-6.0291e-05
-0.000212311
-0.000241432
-0.000157381
-5.3097e-05
3.1405e-05
9.70116e-05
0.00014932
0.000183007
0.000187409
0.000167304
0.000139771
0.000124735
0.000125619
0.000119226
9.50084e-05
7.0208e-05
6.96285e-05
1.56806e-05
-0.000100795
-0.000184249
-0.000174753
-0.000110284
-5.49063e-05
-2.8043e-05
-1.97742e-05
-1.03157e-05
2.6133e-05
6.22538e-05
5.04967e-05
-6.41467e-06
-5.21256e-05
-7.42252e-05
-8.86101e-05
-7.4497e-05
3.13814e-06
0.000136308
0.000270358
0.000298009
0.000172307
-5.39893e-05
-0.000228859
-0.000263512
-0.000188679
-8.68637e-05
-4.56347e-07
6.87041e-05
0.000126081
0.000167666
0.000181334
0.000167854
0.000140751
0.000121815
0.000118434
0.000112975
9.52279e-05
8.00805e-05
8.23702e-05
3.91683e-05
-7.99212e-05
-0.00018177
-0.000184085
-0.000120818
-6.3754e-05
-3.28943e-05
-1.76872e-05
-4.471e-06
3.17123e-05
7.66518e-05
8.36522e-05
1.65725e-05
-4.7714e-05
-7.38662e-05
-7.9296e-05
-6.90938e-05
-1.70767e-05
8.72653e-05
0.000214598
0.000266145
0.000169434
-4.73658e-05
-0.000245925
-0.000281855
-0.000211013
-0.000107615
-2.02796e-05
4.88725e-05
0.000107062
0.000152615
0.000172677
0.000164103
0.000136365
0.000112879
0.000105834
0.000102622
9.1132e-05
8.30499e-05
8.56098e-05
5.47343e-05
-5.92845e-05
-0.00017529
-0.000192149
-0.000131597
-7.35369e-05
-4.11385e-05
-2.18026e-05
-2.71184e-06
3.29337e-05
7.97132e-05
9.57755e-05
3.51296e-05
-3.88807e-05
-6.89423e-05
-7.00882e-05
-6.99493e-05
-4.75633e-05
2.60795e-05
0.000143719
0.000219368
0.000159477
-3.71296e-05
-0.000240997
-0.000285308
-0.000216898
-0.000114185
-3.0803e-05
3.41423e-05
8.99791e-05
0.000137186
0.00016291
0.000160215
0.000131343
0.00010201
9.00972e-05
8.79013e-05
8.20457e-05
7.93885e-05
8.08947e-05
6.00216e-05
-4.35577e-05
-0.00016635
-0.000195943
-0.000138431
-8.09807e-05
-4.66051e-05
-2.74973e-05
-3.36337e-06
3.14793e-05
7.29633e-05
9.33765e-05
4.19521e-05
-3.23443e-05
-6.59135e-05
-6.54026e-05
-7.2515e-05
-7.46563e-05
-2.91697e-05
7.4544e-05
0.000167684
0.00014462
-2.24144e-05
-0.000218219
-0.000266025
-0.000206973
-0.000113412
-3.90705e-05
1.98334e-05
7.2018e-05
0.00011982
0.000152801
0.000155804
0.000126759
9.1063e-05
7.36291e-05
7.12945e-05
6.9876e-05
7.13235e-05
7.23426e-05
5.78625e-05
-3.27599e-05
-0.000151341
-0.000189811
-0.00013758
-8.2828e-05
-4.89663e-05
-3.18257e-05
-6.18604e-06
2.9142e-05
6.31092e-05
8.19283e-05
3.98814e-05
-2.69136e-05
-6.49384e-05
-6.35072e-05
-6.92972e-05
-8.14513e-05
-5.62681e-05
2.87913e-05
0.000125262
0.000130163
-2.26383e-06
-0.00015732
-0.000229865
-0.000187627
-0.000113043
-4.931e-05
2.06762e-06
4.89949e-05
9.79051e-05
0.000139205
0.000150154
0.000121413
7.88932e-05
5.54635e-05
5.28149e-05
5.54252e-05
6.07245e-05
5.93308e-05
4.86885e-05
-2.79793e-05
-0.000132614
-0.00016633
-0.000130057
-8.25047e-05
-5.19307e-05
-3.43046e-05
-1.15868e-05
2.37126e-05
5.31181e-05
6.62903e-05
3.24689e-05
-2.49005e-05
-6.24541e-05
-6.52474e-05
-6.38453e-05
-6.42232e-05
-4.33681e-05
2.05234e-05
9.93611e-05
0.000114145
1.26354e-05
-0.00012321
-0.000194135
-0.000171185
-0.000114042
-6.11925e-05
-2.07775e-05
1.79253e-05
6.7277e-05
0.00011907
0.000141499
0.000114078
6.42307e-05
3.39939e-05
3.0615e-05
3.71118e-05
4.63725e-05
4.09466e-05
3.5872e-05
-2.77637e-05
-0.000114196
-0.000149352
-0.000123717
-8.33777e-05
-5.19492e-05
-3.24827e-05
-1.09099e-05
2.01059e-05
4.74834e-05
5.33823e-05
2.18118e-05
-2.54117e-05
-6.15387e-05
-6.66331e-05
-5.40614e-05
-3.88578e-05
-1.69578e-05
2.82262e-05
8.89561e-05
0.000102978
2.52277e-05
-9.6845e-05
-0.00017079
-0.000163254
-0.000117964
-7.63574e-05
-4.75662e-05
-1.67314e-05
3.16547e-05
9.14893e-05
0.000126868
0.000104952
4.67768e-05
9.23095e-06
4.89272e-06
1.46992e-05
2.69599e-05
1.67571e-05
1.59263e-05
-2.87791e-05
-9.88461e-05
-0.000136042
-0.000130082
-8.86184e-05
-5.58884e-05
-3.02873e-05
-5.53312e-06
2.3071e-05
4.47018e-05
4.74008e-05
1.43052e-05
-2.96524e-05
-6.47036e-05
-6.79176e-05
-3.84217e-05
-2.86128e-05
-8.63913e-06
2.56696e-05
7.50116e-05
8.96451e-05
3.21001e-05
-7.97405e-05
-0.000159
-0.000165118
-0.000127203
-8.93404e-05
-6.54557e-05
-4.18511e-05
1.54794e-07
6.13404e-05
0.000106961
9.34262e-05
2.70095e-05
-1.79381e-05
-2.6201e-05
-1.32071e-05
2.13795e-06
-1.29094e-05
-9.85654e-06
-3.60579e-05
-8.64695e-05
-0.000116474
-0.000106352
-8.62128e-05
-5.61234e-05
-2.89522e-05
-3.63894e-06
2.4641e-05
4.62364e-05
4.52553e-05
1.04522e-05
-3.53859e-05
-6.79594e-05
-7.0639e-05
-6.37036e-05
-2.97639e-05
-8.22782e-06
1.94354e-05
5.58965e-05
6.80517e-05
2.3043e-05
-7.27406e-05
-0.000148773
-0.0001633
-0.00012534
-8.98183e-05
-7.0398e-05
-5.45269e-05
-2.17157e-05
3.64068e-05
8.78424e-05
8.33832e-05
2.07829e-05
-3.98115e-05
-5.68235e-05
-4.44924e-05
-2.70073e-05
-4.57496e-05
-3.86178e-05
-4.93795e-05
-7.8896e-05
-0.000101358
-0.000103249
-9.00131e-05
-6.18364e-05
-3.27562e-05
-7.33636e-06
2.07592e-05
4.51381e-05
4.64478e-05
1.0814e-05
-3.50138e-05
-6.34509e-05
-6.27521e-05
-4.38986e-05
-1.74339e-05
3.42621e-07
1.84995e-05
4.17856e-05
4.69628e-05
1.13759e-05
-6.02383e-05
-0.000118184
-0.000123678
-0.00010174
-7.20506e-05
-6.07453e-05
-5.76557e-05
-3.5632e-05
2.14979e-05
7.94693e-05
8.23211e-05
1.977e-05
-5.41124e-05
-8.60728e-05
-7.98384e-05
-6.04274e-05
-7.30207e-05
-6.00059e-05
-5.37053e-05
-6.49262e-05
-8.99646e-05
-0.000108146
-0.000101069
-6.9084e-05
-3.50184e-05
-9.109e-06
1.80284e-05
4.10778e-05
4.68621e-05
1.51783e-05
-2.34411e-05
-4.43798e-05
-3.95456e-05
-2.10824e-05
-8.31579e-06
-3.94907e-06
3.38484e-06
1.39142e-05
1.18698e-05
-1.47421e-05
-5.80133e-05
-9.26713e-05
-0.000101144
-9.16809e-05
-7.72891e-05
-6.54524e-05
-6.02818e-05
-3.97846e-05
2.0292e-05
8.73711e-05
9.97868e-05
3.92116e-05
-4.71315e-05
-0.000100557
-0.000106446
-8.91021e-05
-9.4467e-05
-8.19179e-05
-6.91839e-05
-7.05719e-05
-9.41297e-05
-0.000118763
-0.000114149
-8.14867e-05
-4.37317e-05
-1.54259e-05
9.5282e-06
3.13122e-05
3.84538e-05
1.35211e-05
-2.08182e-05
-3.86984e-05
-3.7881e-05
-2.35699e-05
-1.20379e-05
-7.82756e-06
-5.2332e-06
-1.55882e-06
-3.08207e-06
-1.89971e-05
-5.00466e-05
-8.07582e-05
-9.46721e-05
-8.87768e-05
-7.03505e-05
-4.63615e-05
-2.67908e-05
-4.88564e-06
2.42549e-05
9.91456e-05
0.000126311
8.06041e-05
-9.19755e-06
-8.05899e-05
-0.000106783
-0.000104052
-9.83492e-05
-8.77666e-05
-7.71509e-05
-7.72679e-05
-9.31284e-05
-0.000108311
-0.000103981
-7.61045e-05
-4.1339e-05
-1.39721e-05
5.40006e-06
1.71088e-05
1.69244e-05
-7.64611e-06
-3.85832e-05
-5.6708e-05
-5.48136e-05
-3.74267e-05
-1.89482e-05
-1.01678e-05
-1.10335e-05
-1.54832e-05
-2.32004e-05
-3.67737e-05
-5.70498e-05
-7.3931e-05
-7.78803e-05
-6.33753e-05
-3.27959e-05
-3.2848e-06
2.02998e-05
3.50513e-05
5.33145e-05
9.49216e-05
0.000131591
0.00010849
2.86245e-05
-5.42104e-05
-9.89476e-05
-0.000106349
-0.000113057
-9.67865e-05
-8.00852e-05
-7.6786e-05
-9.24221e-05
-0.00010855
-0.000104747
-7.67033e-05
-3.8679e-05
-1.32392e-06
1.27348e-05
1.68183e-05
3.2174e-06
-2.38274e-05
-4.57068e-05
-5.15933e-05
-4.53127e-05
-3.30634e-05
-2.0202e-05
-1.43692e-05
-2.20607e-05
-3.86016e-05
-5.44687e-05
-6.38942e-05
-6.90704e-05
-7.0979e-05
-6.60657e-05
-5.04094e-05
-2.47078e-05
5.81678e-06
3.0101e-05
4.66208e-05
6.23128e-05
8.97809e-05
0.000118059
0.00011202
5.53812e-05
-2.42614e-05
-8.60314e-05
-0.000114573
-0.000100571
-9.17367e-05
-8.22541e-05
-8.6187e-05
-0.000104124
-0.000118484
-0.000108896
-7.71277e-05
-4.2155e-05
-1.62938e-05
-3.27924e-06
3.24519e-07
-7.37338e-06
-2.04518e-05
-3.1975e-05
-3.62775e-05
-3.79884e-05
-4.03684e-05
-3.90733e-05
-3.35728e-05
-3.23499e-05
-4.00467e-05
-5.30721e-05
-6.50858e-05
-7.35208e-05
-7.59084e-05
-6.57163e-05
-3.96945e-05
-8.71133e-06
2.0992e-05
4.15307e-05
5.38678e-05
6.46351e-05
7.95109e-05
9.37412e-05
8.93306e-05
5.21439e-05
-6.98096e-06
-6.10796e-05
-9.29518e-05
-8.68458e-05
-8.64756e-05
-8.29793e-05
-8.65174e-05
-9.8622e-05
-0.000105512
-9.22024e-05
-6.14311e-05
-2.7423e-05
-3.34632e-06
2.17573e-06
-8.61939e-06
-2.54354e-05
-3.58803e-05
-3.65338e-05
-3.31514e-05
-3.45539e-05
-4.31384e-05
-5.10628e-05
-5.23734e-05
-5.15568e-05
-5.36316e-05
-5.62983e-05
-5.7448e-05
-5.58855e-05
-5.16743e-05
-4.4372e-05
-3.42272e-05
-1.64502e-05
7.18684e-06
3.12218e-05
4.9406e-05
6.32486e-05
7.54145e-05
7.9677e-05
6.78237e-05
4.00491e-05
4.46496e-07
-4.08838e-05
-7.1818e-05
-5.51153e-05
-6.76059e-05
-7.36185e-05
-7.69125e-05
-8.01078e-05
-7.81496e-05
-6.73591e-05
-4.94496e-05
-3.0853e-05
-1.47435e-05
-3.88711e-06
-3.18559e-06
-7.55676e-06
-7.49496e-06
-2.09623e-06
-1.77048e-06
-1.11291e-05
-3.16369e-05
-5.30422e-05
-6.94035e-05
-7.85843e-05
-7.85478e-05
-6.95178e-05
-5.4537e-05
-3.92899e-05
-2.76548e-05
-2.12938e-05
-1.51229e-05
-3.82941e-06
1.22865e-05
2.74164e-05
3.75454e-05
4.56085e-05
5.68505e-05
6.90073e-05
7.16109e-05
5.79316e-05
3.04015e-05
-2.23968e-06
-3.21166e-05
4.51208e-05
-1.1116e-05
-0.000105488
-0.000176669
-0.000180554
-0.00013973
-8.29117e-05
-1.37176e-05
5.66698e-05
0.000100826
9.1402e-05
6.12928e-05
3.50828e-05
4.85033e-06
-4.08418e-05
-8.20855e-05
-8.32168e-05
-2.81934e-05
7.72465e-05
0.000223719
0.000355412
0.000389576
0.000294436
9.45884e-05
-0.000124141
-0.000225446
-0.000196691
-0.000113858
-3.34961e-05
3.82766e-05
0.000104261
0.000158974
0.000192426
0.000205926
0.000201193
0.000215078
0.000240703
0.000222747
0.000149391
8.35398e-05
4.64058e-05
-9.14036e-06
-0.000103081
-0.000174812
-0.000179524
-0.000140155
-8.46317e-05
-1.64909e-05
5.43986e-05
0.000100323
9.21866e-05
6.27643e-05
3.6447e-05
5.22097e-06
-4.11133e-05
-8.40493e-05
-8.80855e-05
-3.60309e-05
6.73013e-05
0.000213447
0.000347172
0.000385238
0.000293928
9.75654e-05
-0.000121689
-0.000225539
-0.000199549
-0.000118412
-3.85734e-05
3.35855e-05
0.000100063
0.000154953
0.000187979
0.000200624
0.000193359
0.000204647
0.000231424
0.000217679
0.000148488
8.38375e-05
4.94991e-05
-5.6228e-06
-0.000100224
-0.000174367
-0.000181061
-0.000142709
-8.71798e-05
-1.91262e-05
5.26528e-05
0.000100441
9.32882e-05
6.28818e-05
3.55382e-05
3.3011e-06
-4.40549e-05
-8.85939e-05
-9.49377e-05
-4.49692e-05
5.75517e-05
0.0002053
0.000341466
0.000382661
0.000293376
9.94388e-05
-0.00012088
-0.000227189
-0.000202919
-0.000122107
-4.23464e-05
2.9148e-05
9.4899e-05
0.000149972
0.000184212
0.000199344
0.000193203
0.000203777
0.000227185
0.000212652
0.000146627
8.52379e-05
5.43259e-05
-8.62104e-07
-9.78756e-05
-0.000176189
-0.000185278
-0.000147626
-9.15591e-05
-2.25714e-05
5.16468e-05
9.99675e-05
9.53594e-05
6.2443e-05
3.37522e-05
5.99292e-07
-4.78873e-05
-9.44007e-05
-0.000103533
-5.59291e-05
4.53548e-05
0.000196029
0.000336714
0.000381595
0.000293424
0.000100973
-0.000122055
-0.000231842
-0.000210007
-0.000128802
-4.7447e-05
2.50761e-05
9.09234e-05
0.00014599
0.000181119
0.000196721
0.000195487
0.000207535
0.000228086
0.00021086
0.000145281
8.6563e-05
6.14841e-05
6.19359e-06
-9.56379e-05
-0.000180441
-0.000191924
-0.000154542
-9.78851e-05
-2.80085e-05
4.8934e-05
0.000101533
9.87442e-05
6.26761e-05
3.16125e-05
-1.5865e-06
-5.04422e-05
-9.91698e-05
-0.000112816
-6.99193e-05
2.72315e-05
0.000179741
0.00032676
0.000378088
0.00029314
0.000103156
-0.000123592
-0.000239698
-0.000224557
-0.000144914
-5.97365e-05
1.85641e-05
8.83595e-05
0.000144636
0.000179186
0.000192903
0.00019303
0.000207603
0.000228914
0.0002111
0.000145502
8.77101e-05
7.05233e-05
1.77014e-05
-9.14234e-05
-0.00018728
-0.0002013
-0.000162959
-0.000104871
-3.42456e-05
4.55026e-05
0.000104557
0.000101251
6.35354e-05
2.88219e-05
-4.253e-06
-5.06157e-05
-0.00010035
-0.000118865
-8.51489e-05
5.97475e-06
0.000156426
0.000308954
0.000369208
0.000290426
0.000104228
-0.000124391
-0.000249018
-0.000246436
-0.000173697
-8.56415e-05
2.43562e-06
8.2822e-05
0.000145529
0.000180742
0.000190397
0.000187037
0.000199587
0.000223516
0.000209636
0.000147063
8.99434e-05
8.19223e-05
3.66116e-05
-8.09707e-05
-0.000194628
-0.0002134
-0.000171554
-0.000110923
-3.94875e-05
4.04885e-05
0.000106897
0.000106741
6.71225e-05
2.51595e-05
-1.06264e-05
-5.24253e-05
-9.83653e-05
-0.000119623
-9.52342e-05
-1.35099e-05
0.000129421
0.000283568
0.000353637
0.000283677
9.80464e-05
-0.000124927
-0.000257992
-0.000271937
-0.000211088
-0.000122647
-2.46095e-05
6.86073e-05
0.000141546
0.000181492
0.000189038
0.000180055
0.000185673
0.00020743
0.000202536
0.000148357
9.49871e-05
9.64645e-05
6.07925e-05
-6.46774e-05
-0.000196356
-0.000224487
-0.00018016
-0.000116651
-4.34449e-05
3.48049e-05
0.000102297
0.000112464
7.34278e-05
2.10122e-05
-2.24689e-05
-5.91022e-05
-9.6335e-05
-0.000116054
-9.86186e-05
-2.85185e-05
0.000101694
0.000252316
0.00033139
0.000272935
9.26447e-05
-0.000126082
-0.000266713
-0.00029685
-0.000247628
-0.00015888
-5.3301e-05
4.99732e-05
0.000131796
0.000177264
0.000184494
0.000170789
0.000168109
0.000184731
0.000186792
0.00014657
0.000104344
0.000113512
8.85241e-05
-4.18511e-05
-0.000192238
-0.000231074
-0.000185801
-0.000120335
-4.79945e-05
2.6107e-05
9.13979e-05
0.00011088
8.23374e-05
1.84754e-05
-3.84613e-05
-7.02608e-05
-9.44128e-05
-0.000106681
-9.38175e-05
-3.8352e-05
7.43121e-05
0.00021615
0.000302443
0.000258416
8.80929e-05
-0.000127568
-0.00027488
-0.000316926
-0.000274944
-0.000185286
-7.50588e-05
3.33214e-05
0.000120867
0.000170872
0.00017747
0.000158483
0.000147206
0.000157333
0.000163536
0.00013893
0.000111538
0.000130411
0.000112749
-1.78719e-05
-0.000185625
-0.000237233
-0.000189515
-0.000121929
-5.38437e-05
1.31182e-05
7.43289e-05
0.000102181
8.334e-05
2.59712e-05
-5.01536e-05
-8.17673e-05
-9.04343e-05
-9.25013e-05
-8.35026e-05
-4.4254e-05
4.7461e-05
0.000175103
0.000265774
0.000239523
8.47549e-05
-0.000126528
-0.000278155
-0.000326662
-0.000287922
-0.000198008
-8.64352e-05
2.204e-05
0.000111632
0.000165428
0.000171673
0.000146264
0.000124887
0.000127094
0.000135159
0.00012458
0.000113404
0.000135083
0.000125126
-5.53233e-07
-0.000183715
-0.000249136
-0.000199674
-0.000128133
-6.31595e-05
-3.9512e-06
5.29991e-05
8.8745e-05
8.1937e-05
2.85725e-05
-5.1335e-05
-9.12819e-05
-9.00153e-05
-8.007e-05
-7.17376e-05
-4.6726e-05
2.26735e-05
0.000131501
0.000221867
0.0002152
8.21948e-05
-0.000119379
-0.000270741
-0.00031945
-0.000279103
-0.000190626
-8.5705e-05
1.49949e-05
0.000101383
0.000159203
0.000167259
0.000136811
0.000104614
9.76032e-05
0.00010538
0.000105235
0.00010745
0.000126898
0.00011875
3.99032e-06
-0.00018569
-0.000261286
-0.000208474
-0.000132688
-7.32699e-05
-2.40414e-05
2.74086e-05
7.16679e-05
7.75634e-05
3.28029e-05
-4.58519e-05
-9.86174e-05
-9.71124e-05
-7.0614e-05
-5.56666e-05
-4.10855e-05
4.67006e-06
9.08441e-05
0.000176738
0.000187945
7.87078e-05
-0.000108265
-0.00025209
-0.000293392
-0.000252383
-0.000173873
-8.3684e-05
4.25436e-06
8.59363e-05
0.000148114
0.000163634
0.00013029
8.69879e-05
7.04517e-05
7.70771e-05
8.43307e-05
9.47218e-05
0.000109575
0.000108319
-3.92763e-06
-0.000185249
-0.000262023
-0.000205446
-0.000125025
-7.11598e-05
-3.19478e-05
7.61943e-06
5.61692e-05
7.3449e-05
3.66064e-05
-3.82174e-05
-9.82237e-05
-0.000100664
-6.05285e-05
-3.33823e-05
-2.28458e-05
1.93074e-06
6.1747e-05
0.000137036
0.00016135
7.27432e-05
-9.49869e-05
-0.000226818
-0.000263215
-0.000229275
-0.000162738
-8.75558e-05
-1.43957e-05
6.10099e-05
0.000130109
0.000158042
0.000126467
7.10199e-05
4.36524e-05
4.90552e-05
6.27535e-05
7.86862e-05
8.75601e-05
8.5889e-05
-1.59727e-05
-0.000172303
-0.000235324
-0.000183842
-0.000108434
-6.17096e-05
-2.97426e-05
6.54757e-07
4.70102e-05
7.19071e-05
4.0724e-05
-2.82234e-05
-8.60091e-05
-9.10391e-05
-5.05626e-05
-7.19682e-06
7.55302e-06
1.92189e-05
5.20443e-05
0.000107223
0.000133433
6.29464e-05
-8.19227e-05
-0.000201751
-0.000240102
-0.000212212
-0.000156251
-9.93293e-05
-4.36812e-05
2.43369e-05
0.000101009
0.000145357
0.000121895
5.72215e-05
1.59863e-05
1.84226e-05
3.82852e-05
5.98791e-05
6.24366e-05
5.9177e-05
-2.12628e-05
-0.000143413
-0.0001937
-0.000158949
-0.000100153
-5.91581e-05
-2.89079e-05
2.80158e-07
4.51444e-05
7.11023e-05
4.68896e-05
-1.82492e-05
-7.29317e-05
-9.05344e-05
-4.55883e-05
1.37628e-05
3.18371e-05
3.72011e-05
5.33082e-05
8.99815e-05
0.000110311
5.41766e-05
-7.25468e-05
-0.000184574
-0.000222672
-0.000200495
-0.000157915
-0.000116106
-7.22756e-05
-1.22643e-05
6.54786e-05
0.000123074
0.000111853
4.60053e-05
-1.09617e-05
-1.29938e-05
1.07447e-05
3.73923e-05
3.46004e-05
3.23767e-05
-2.60864e-05
-0.000115273
-0.000159179
-0.00014044
-9.62845e-05
-5.89467e-05
-2.86624e-05
1.0541e-06
4.33188e-05
7.54001e-05
5.40633e-05
-1.10343e-05
-6.35857e-05
-9.08659e-05
-4.88289e-05
7.88886e-06
2.94776e-05
3.50936e-05
4.50112e-05
7.34873e-05
9.14907e-05
4.76603e-05
-6.9316e-05
-0.000178854
-0.000220042
-0.00020412
-0.000163572
-0.000122008
-8.23386e-05
-3.43359e-05
3.35377e-05
9.48082e-05
9.62358e-05
3.61085e-05
-3.69446e-05
-4.81319e-05
-2.19887e-05
1.0015e-05
3.17627e-06
4.76782e-06
-3.49674e-05
-9.78896e-05
-0.000131125
-0.000118997
-8.9252e-05
-5.85694e-05
-2.94574e-05
1.61722e-06
4.33133e-05
7.85457e-05
6.2143e-05
-5.68797e-06
-7.2405e-05
-9.29909e-05
-5.66392e-05
-1.18959e-05
1.42542e-05
2.16163e-05
2.85434e-05
4.37625e-05
6.24332e-05
2.94153e-05
-7.18049e-05
-0.000175042
-0.000216166
-0.00019341
-0.000146677
-0.000105199
-7.07649e-05
-3.58065e-05
1.84552e-05
7.33835e-05
8.06948e-05
2.08167e-05
-5.82147e-05
-8.06955e-05
-5.95997e-05
-2.30282e-05
-3.54559e-05
-2.56029e-05
-4.60431e-05
-8.42878e-05
-0.000107254
-0.000104439
-8.83212e-05
-6.46986e-05
-3.67721e-05
-4.17066e-06
3.90527e-05
7.98365e-05
7.13564e-05
5.10054e-06
-7.15478e-05
-9.9747e-05
-7.2337e-05
-2.92958e-05
1.70833e-06
1.28927e-05
1.70982e-05
2.29793e-05
3.201e-05
6.8911e-06
-6.83842e-05
-0.000147536
-0.000174263
-0.000154811
-0.000113044
-8.08446e-05
-5.75297e-05
-2.83162e-05
2.43163e-05
7.42854e-05
7.98668e-05
1.96706e-05
-7.08544e-05
-0.000103469
-0.000104569
-6.64959e-05
-7.53041e-05
-5.72297e-05
-5.71363e-05
-7.22239e-05
-9.04718e-05
-9.95345e-05
-9.37795e-05
-7.17469e-05
-4.24237e-05
-1.10736e-05
2.8408e-05
7.1643e-05
6.92173e-05
1.27846e-05
-6.32753e-05
-9.86573e-05
-7.90065e-05
-3.73137e-05
-6.88789e-06
1.62184e-06
1.80609e-06
3.44914e-06
4.61343e-06
-1.45324e-05
-6.20312e-05
-0.000110916
-0.000129838
-0.000125768
-0.000106563
-8.79639e-05
-6.59691e-05
-2.05012e-05
4.68661e-05
9.8263e-05
0.000102605
4.13227e-05
-4.75276e-05
-0.000119022
-0.000134169
-0.000107188
-9.87519e-05
-7.97213e-05
-7.12665e-05
-7.55603e-05
-9.08476e-05
-0.000106235
-0.000103986
-8.08663e-05
-4.83741e-05
-1.67357e-05
1.69688e-05
5.13833e-05
4.99809e-05
5.6863e-06
-5.61271e-05
-9.3351e-05
-8.26996e-05
-4.90474e-05
-1.95985e-05
-7.22312e-06
-6.04749e-06
-7.38709e-06
-1.12039e-05
-2.66454e-05
-5.75357e-05
-9.14223e-05
-0.000111278
-0.000107575
-8.49078e-05
-5.57167e-05
-2.5784e-05
1.43339e-05
8.62546e-05
0.000126813
0.000139281
8.49944e-05
-1.46203e-05
-9.99774e-05
-0.000134734
-0.000124192
-0.000112565
-9.44222e-05
-8.48244e-05
-8.49055e-05
-9.34119e-05
-0.000101927
-9.76166e-05
-7.57587e-05
-4.53721e-05
-1.66746e-05
1.10788e-05
3.69018e-05
3.41443e-05
-2.64788e-07
-5.0377e-05
-8.51431e-05
-8.52147e-05
-5.78715e-05
-2.68554e-05
-1.11123e-05
-1.20357e-05
-1.93099e-05
-2.67008e-05
-3.80223e-05
-5.64052e-05
-7.27433e-05
-7.40789e-05
-5.22693e-05
-1.97616e-05
1.08872e-05
3.08091e-05
4.77028e-05
8.29674e-05
0.000131006
0.000159428
0.000120241
2.02715e-05
-8.02768e-05
-0.000132651
-0.0001332
-0.00014324
-0.000117839
-9.4772e-05
-8.54927e-05
-8.99401e-05
-9.99679e-05
-9.66748e-05
-7.45456e-05
-4.19044e-05
-1.0623e-05
1.19203e-05
2.75645e-05
2.20335e-05
-7.12122e-06
-4.23771e-05
-6.05803e-05
-5.62504e-05
-3.93895e-05
-2.1481e-05
-1.26885e-05
-1.79834e-05
-3.12142e-05
-4.20337e-05
-4.74888e-05
-5.02274e-05
-4.85662e-05
-3.91723e-05
-1.95412e-05
4.81539e-06
2.88925e-05
4.23163e-05
5.32341e-05
7.45194e-05
0.000110587
0.000142011
0.000128496
5.3409e-05
-4.83725e-05
-0.00012472
-0.000155455
-0.000129321
-0.000117226
-0.000100655
-9.43712e-05
-0.00010315
-0.000111291
-0.000101049
-7.39456e-05
-4.16494e-05
-1.4615e-05
2.14179e-06
9.02624e-06
2.6785e-06
-1.33495e-05
-2.9011e-05
-3.54303e-05
-3.71532e-05
-4.06572e-05
-4.19602e-05
-3.76513e-05
-3.45258e-05
-3.77871e-05
-4.59851e-05
-5.72759e-05
-6.55095e-05
-6.57866e-05
-5.38468e-05
-2.86947e-05
1.18107e-06
2.75819e-05
4.4102e-05
5.49846e-05
6.87182e-05
8.73098e-05
0.000103371
9.56293e-05
5.00945e-05
-1.91593e-05
-8.29787e-05
-0.000120223
-0.000101547
-0.000100477
-9.26279e-05
-8.92099e-05
-9.41578e-05
-9.73164e-05
-8.57183e-05
-6.02843e-05
-2.78491e-05
-9.79148e-07
1.59805e-05
2.1814e-05
1.49666e-05
3.17135e-07
-1.22198e-05
-2.00394e-05
-2.9659e-05
-4.49574e-05
-5.95678e-05
-6.49401e-05
-6.25627e-05
-5.86199e-05
-5.55275e-05
-5.35723e-05
-5.10314e-05
-4.62134e-05
-3.83934e-05
-2.82257e-05
-1.28085e-05
6.80344e-06
2.7995e-05
4.67852e-05
6.29055e-05
7.4496e-05
7.80326e-05
6.78932e-05
3.92769e-05
-4.50984e-06
-5.079e-05
-8.54303e-05
-6.01288e-05
-7.01719e-05
-7.12012e-05
-7.18633e-05
-7.5272e-05
-7.57239e-05
-6.80661e-05
-5.14126e-05
-3.19048e-05
-1.34309e-05
2.23058e-06
1.07158e-05
1.47122e-05
1.74051e-05
2.13572e-05
2.20581e-05
7.11888e-06
-2.26679e-05
-5.48448e-05
-7.60332e-05
-8.16984e-05
-7.38097e-05
-5.77869e-05
-4.28099e-05
-3.0682e-05
-2.25212e-05
-2.07583e-05
-2.16789e-05
-1.46901e-05
-1.66233e-06
1.5834e-05
3.21277e-05
4.65512e-05
6.09697e-05
6.98182e-05
6.71565e-05
5.03297e-05
2.11372e-05
-1.1359e-05
-3.9979e-05
0.000129585
1.52597e-05
-0.000133165
-0.000187287
-0.000132818
-6.2259e-05
-2.53544e-05
-1.39455e-05
-1.10219e-05
-1.06964e-06
1.88218e-05
3.00352e-05
2.36511e-05
-3.97991e-06
-4.51157e-05
-7.9337e-05
-8.91703e-05
-7.22269e-05
-1.84665e-05
9.87236e-05
0.000246484
0.000333457
0.000294496
0.00014283
-5.95872e-05
-0.000215649
-0.000271364
-0.000245222
-0.000176207
-8.38423e-05
1.41415e-05
9.94649e-05
0.000153821
0.000174886
0.000174495
0.000177291
0.000181402
0.00016238
0.000136665
0.000140649
0.000132318
1.83645e-05
-0.000130915
-0.000186111
-0.00013199
-6.09357e-05
-2.38668e-05
-1.24477e-05
-9.37105e-06
5.94267e-07
2.08404e-05
3.2404e-05
2.63301e-05
-5.38247e-07
-4.43554e-05
-8.06231e-05
-9.24737e-05
-7.70201e-05
-2.47319e-05
9.08207e-05
0.000238178
0.000326817
0.000291185
0.000142871
-5.66776e-05
-0.000212461
-0.000269297
-0.000244325
-0.000176189
-8.43177e-05
1.2746e-05
9.68929e-05
0.000149487
0.000168501
0.000166422
0.000168278
0.000173056
0.00015595
0.000132801
0.000140002
0.000137341
2.44054e-05
-0.000128281
-0.00018654
-0.000133056
-6.11446e-05
-2.31654e-05
-1.10177e-05
-7.76595e-06
1.10872e-06
2.07714e-05
3.22556e-05
2.60356e-05
-1.34213e-06
-4.62514e-05
-8.44433e-05
-9.84216e-05
-8.46322e-05
-3.3221e-05
8.34826e-05
0.000234766
0.000325546
0.000290526
0.000142794
-5.38507e-05
-0.000209622
-0.000268257
-0.000245006
-0.000178486
-8.77756e-05
8.74622e-06
9.33253e-05
0.000146941
0.000166809
0.000165096
0.000166009
0.000168663
0.00014983
0.000127164
0.000139031
0.000142985
3.31202e-05
-0.000127002
-0.000190189
-0.000136873
-6.34823e-05
-2.41825e-05
-1.0471e-05
-6.5651e-06
8.29162e-07
1.88015e-05
3.00401e-05
2.41845e-05
-3.87295e-06
-5.01109e-05
-9.01797e-05
-0.000106784
-9.58167e-05
-4.64658e-05
7.23128e-05
0.000231507
0.00032791
0.000293249
0.000143299
-5.15764e-05
-0.00020851
-0.000270428
-0.000249275
-0.000183903
-9.35473e-05
2.89119e-06
8.84702e-05
0.000144205
0.000166533
0.000166898
0.000167942
0.00016861
0.000146803
0.000121469
0.000138065
0.000152374
4.61375e-05
-0.000126316
-0.000197406
-0.000143631
-6.79701e-05
-2.71475e-05
-1.15225e-05
-4.68301e-06
1.53429e-07
1.62849e-05
2.49704e-05
2.06885e-05
-6.51983e-06
-5.40377e-05
-9.58399e-05
-0.000115879
-0.000109769
-6.59572e-05
5.15398e-05
0.000219416
0.000326981
0.000295579
0.00014426
-4.85055e-05
-0.000207959
-0.000276158
-0.00025865
-0.000193456
-0.000101513
-4.38765e-06
8.19398e-05
0.000138746
0.000162707
0.000165425
0.000168045
0.000168875
0.000145821
0.000117602
0.000137426
0.00016529
6.4023e-05
-0.000123375
-0.000208441
-0.000154239
-7.52494e-05
-3.25677e-05
-1.52486e-05
-5.13961e-06
-1.29548e-06
1.18203e-05
1.6578e-05
1.23287e-05
-1.09089e-05
-5.57598e-05
-9.88207e-05
-0.000122353
-0.000123006
-8.79726e-05
2.30324e-05
0.00019578
0.000316871
0.000293219
0.000143497
-4.30826e-05
-0.000206435
-0.000285099
-0.000275286
-0.000210243
-0.000113686
-1.34904e-05
7.45108e-05
0.000131516
0.000155171
0.00015814
0.000161925
0.000164944
0.0001442
0.000115484
0.000137927
0.000180368
9.02964e-05
-0.0001135
-0.000221372
-0.000168998
-8.54279e-05
-4.0302e-05
-2.20089e-05
-9.08268e-06
-4.00293e-06
5.03721e-06
2.79741e-06
-2.89976e-06
-1.95729e-05
-5.83852e-05
-9.93611e-05
-0.000124793
-0.000133212
-0.000108908
-7.50517e-06
0.000164867
0.000297692
0.000284895
0.000143606
-3.87495e-05
-0.000203592
-0.000295042
-0.000297586
-0.000234612
-0.000131756
-2.68159e-05
6.4005e-05
0.000121666
0.000144409
0.000145362
0.000147841
0.000153207
0.000138644
0.00011424
0.000139964
0.000197046
0.000121059
-9.78854e-05
-0.000231781
-0.000187704
-9.79212e-05
-4.80353e-05
-2.99229e-05
-1.61495e-05
-5.57028e-06
-3.20211e-06
-1.55469e-05
-2.55829e-05
-3.3391e-05
-6.25032e-05
-9.8177e-05
-0.000123159
-0.000138473
-0.000125351
-3.52078e-05
0.000132682
0.000273723
0.000273985
0.000141588
-3.64062e-05
-0.000200671
-0.000302759
-0.000317766
-0.000258715
-0.000158212
-4.26052e-05
5.06311e-05
0.000109125
0.000130346
0.00012744
0.000126061
0.000132361
0.000126497
0.0001114
0.000143658
0.000213031
0.000152254
-7.26242e-05
-0.000235043
-0.000206442
-0.000109893
-5.31837e-05
-3.33953e-05
-2.28006e-05
-9.84087e-06
-4.92708e-06
-3.09522e-05
-5.21486e-05
-5.33873e-05
-6.9917e-05
-9.58207e-05
-0.000117657
-0.000137383
-0.000134369
-5.66309e-05
0.000102488
0.000247593