/*--------------------------------*- C++ -*----------------------------------*\
| =========                 |                                                 |
| \\      /  F ield         | OpenFOAM: The Open Source CFD Toolbox           |
|  \\    /   O peration     | Version:  5.0                                   |
|   \\  /    A nd           | Web:      www.OpenFOAM.org                      |
|    \\/     M anipulation  |                                                 |
\*---------------------------------------------------------------------------*/
FoamFile
{
    version     2.0;
    format      ascii;
    class       surfaceScalarField;
    location    "50.4676134421789371";
    object      phi;
}
// * * * * * * * * * * * * * * * * * * * * * * * * * * * * * * * * * * * * * //

dimensions      [0 3 -1 0 0 0 0];

internalField   nonuniform List<scalar> 
175300
(
7.0475e-06
1.11193e-07
8.05751e-07
6.65372e-06
4.75534e-07
1.38537e-06
5.95733e-06
7.60003e-07
1.64805e-06
5.26015e-06
6.46064e-07
1.54712e-06
4.8718e-06
1.83699e-07
1.05944e-06
4.80636e-06
-1.76836e-07
2.55208e-07
4.93721e-06
-2.14081e-07
-4.2333e-07
5.2475e-06
-4.694e-08
-8.7481e-07
5.77972e-06
-2.74662e-08
-6.53258e-07
6.35978e-06
-7.52398e-08
1.8058e-07
6.76905e-06
1.40888e-07
1.10261e-06
6.86673e-06
4.83005e-07
1.8757e-06
6.71868e-06
6.92732e-07
2.25738e-06
6.52348e-06
5.97195e-07
2.23396e-06
6.43185e-06
3.83517e-07
1.85921e-06
6.47329e-06
2.0457e-07
1.18568e-06
6.6368e-06
-2.09385e-07
4.1045e-07
6.93551e-06
-9.15706e-07
-2.89926e-07
7.34916e-06
-1.52863e-06
-9.13109e-07
7.84327e-06
-1.38519e-06
-1.70709e-06
8.42429e-06
-4.87431e-07
-2.48574e-06
9.09989e-06
4.82643e-07
-2.53542e-06
9.75719e-06
1.0063e-06
-1.50869e-06
1.03255e-05
7.28104e-07
2.38624e-07
1.0944e-05
-3.73306e-07
2.10715e-06
1.16383e-05
-1.83932e-06
3.49667e-06
1.22025e-05
-2.86563e-06
4.16262e-06
1.23146e-05
-2.99218e-06
4.25037e-06
1.18393e-05
-2.38591e-06
3.96009e-06
1.10031e-05
-1.53677e-06
3.32828e-06
1.02606e-05
-8.96795e-07
2.33101e-06
9.87783e-06
-6.32684e-07
1.11298e-06
9.74822e-06
-4.78506e-07
-2.31874e-08
9.54138e-06
-3.5265e-07
-9.60248e-07
8.93112e-06
-1.81012e-07
-1.6459e-06
7.98068e-06
-1.33178e-08
-2.14323e-06
7.21567e-06
-4.05648e-08
-2.28283e-06
6.94508e-06
-1.69179e-07
-1.80318e-06
6.99264e-06
-1.84126e-07
-9.03938e-07
-9.66091e-08
2.27221e-08
2.33994e-05
-8.7388e-07
2.53736e-06
2.24389e-05
7.41876e-07
4.07035e-06
2.05437e-05
1.97961e-06
4.70982e-06
1.84012e-05
1.82772e-06
4.48333e-06
1.68293e-05
5.16685e-07
3.30324e-06
1.6162e-05
-7.34349e-07
1.24369e-06
1.62427e-05
-9.65439e-07
-8.4388e-07
1.70292e-05
-3.96829e-07
-2.17368e-06
1.86443e-05
-2.45318e-07
-1.60892e-06
2.06441e-05
-5.2934e-07
7.65407e-07
2.22129e-05
-9.33045e-09
3.74258e-06
2.27447e-05
1.18072e-06
6.20409e-06
2.22642e-05
2.1952e-06
7.38265e-06
2.1409e-05
2.15625e-06
7.19805e-06
2.09594e-05
1.24225e-06
5.87299e-06
2.1288e-05
-1.75102e-08
3.75648e-06
2.22491e-05
-1.9811e-06
1.48116e-06
2.34713e-05
-4.35122e-06
-4.00743e-07
2.46045e-05
-5.95166e-06
-2.0845e-06
2.55469e-05
-4.75413e-06
-4.27868e-06
2.66082e-05
-9.05736e-07
-6.594e-06
2.82313e-05
2.95929e-06
-6.97081e-06
3.03093e-05
4.42574e-06
-4.01647e-06
3.25773e-05
2.7946e-06
1.17657e-06
3.50341e-05
-1.68995e-06
6.53918e-06
3.75305e-05
-6.98537e-06
1.02568e-05
3.94545e-05
-1.05293e-05
1.19e-05
3.99806e-05
-1.09333e-05
1.19933e-05
3.86976e-05
-8.74282e-06
1.11841e-05
3.61094e-05
-5.62468e-06
9.65876e-06
3.3536e-05
-3.29187e-06
7.28041e-06
3.2051e-05
-2.45819e-06
4.19562e-06
3.16134e-05
-2.375e-06
1.09887e-06
3.12537e-05
-2.15072e-06
-1.69385e-06
2.97776e-05
-1.46163e-06
-3.77465e-06
2.68701e-05
-4.62862e-07
-5.23336e-06
2.38816e-05
-2.17549e-07
-5.80917e-06
2.24703e-05
-1.00242e-06
-4.8739e-06
2.26553e-05
-1.8094e-06
-2.48809e-06
-1.82834e-06
2.47327e-07
4.14898e-05
-4.6345e-06
2.84155e-06
4.08123e-05
-8.00426e-07
5.68239e-06
3.8442e-05
2.49155e-06
7.03462e-06
3.51518e-05
2.99142e-06
7.12534e-06
3.19372e-05
1.04988e-06
6.12751e-06
2.9707e-05
-1.31232e-06
3.77218e-06
2.89038e-05
-2.1878e-06
2.83916e-07
2.95002e-05
-1.53955e-06
-2.54889e-06
3.16201e-05
-1.0068e-06
-3.06418e-06
3.4941e-05
-1.84122e-06
-2.34147e-09
3.81704e-05
-1.32463e-06
4.73544e-06
3.98339e-05
8.41125e-07
9.39863e-06
3.94552e-05
3.52852e-06
1.20453e-05
3.78805e-05
4.46194e-06
1.22427e-05
3.67253e-05
2.97714e-06
1.03218e-05
3.7121e-05
-1.09982e-07
6.95312e-06
3.8887e-05
-4.5928e-06
3.2372e-06
4.1016e-05
-9.66873e-06
3.39814e-07
4.26537e-05
-1.28668e-05
-1.95672e-06
4.36143e-05
-1.05305e-05
-4.76398e-06
4.45205e-05
-2.2282e-06
-8.42382e-06
4.65228e-05
6.78229e-06
-1.01671e-05
4.99208e-05
1.03524e-05
-6.67808e-06
5.40893e-05
6.81759e-06
1.37715e-06
5.85672e-05
-2.78232e-06
1.02034e-05
6.3003e-05
-1.37736e-05
1.63211e-05
6.65944e-05
-2.12001e-05
1.89071e-05
6.81723e-05
-2.24168e-05
1.88815e-05
6.69419e-05
-1.83384e-05
1.75056e-05
6.32522e-05
-1.20862e-05
1.54167e-05
5.8793e-05
-7.11723e-06
1.25431e-05
5.55418e-05
-5.17787e-06
8.7391e-06
5.42148e-05
-5.37656e-06
4.39564e-06
5.3816e-05
-5.60884e-06
3.14562e-07
5.23723e-05
-4.32931e-06
-3.46028e-06
4.85146e-05
-1.9042e-06
-6.19827e-06
4.32542e-05
-5.66263e-07
-7.74705e-06
3.95467e-05
-2.00554e-06
-7.57942e-06
3.90562e-05
-4.80433e-06
-5.16588e-06
-6.1855e-06
-1.10124e-06
5.89326e-05
-1.14159e-05
8.60775e-07
5.95233e-05
-5.49158e-06
5.48858e-06
5.76694e-05
1.08164e-06
8.15826e-06
5.40455e-05
3.45327e-06
8.95155e-06
4.96093e-05
1.57474e-06
8.54496e-06
4.54649e-05
-1.60216e-06
6.80028e-06
4.27969e-05
-3.55799e-06
3.16397e-06
4.21513e-05
-3.50636e-06
-1.36731e-06
4.36658e-05
-2.79275e-06
-4.18498e-06
4.73501e-05
-3.9669e-06
-2.59699e-06
5.20883e-05
-4.5209e-06
3.07241e-06
5.55516e-05
-1.7199e-06
9.97887e-06
5.61294e-05
3.55092e-06
1.48632e-05
5.43274e-05
7.02207e-06
1.6295e-05
5.24614e-05
5.97967e-06
1.43806e-05
5.27419e-05
9.11152e-07
1.00547e-05
5.53025e-05
-6.89584e-06
4.95942e-06
5.83713e-05
-1.54048e-05
9.14529e-07
6.02317e-05
-2.09255e-05
-1.64864e-06
6.06565e-05
-1.8362e-05
-4.1854e-06
6.08283e-05
-5.65329e-06
-8.2591e-06
6.26397e-05
1.02084e-05
-1.166e-05
6.69499e-05
1.77826e-05
-9.0563e-06
7.28079e-05
1.284e-05
6.5786e-07
7.90433e-05
-2.76728e-06
1.27483e-05
8.50054e-05
-2.07038e-05
2.15741e-05
9.00194e-05
-3.31071e-05
2.53479e-05
9.30647e-05
-3.60256e-05
2.52507e-05
9.30774e-05
-3.05616e-05
2.32062e-05
8.97454e-05
-2.10134e-05
2.0483e-05
8.43514e-05
-1.26409e-05
1.73558e-05
7.92528e-05
-8.70566e-06
1.35836e-05
7.6152e-05
-8.67303e-06
9.15378e-06
7.49251e-05
-9.5872e-06
4.38896e-06
7.37223e-05
-8.50727e-06
-3.98095e-07
7.01902e-05
-4.64172e-06
-4.85944e-06
6.39363e-05
-1.34862e-06
-7.956e-06
5.78312e-05
-2.5155e-06
-9.21177e-06
5.53072e-05
-7.57658e-06
-8.15759e-06
-1.19792e-05
-4.41931e-06
7.62107e-05
-1.94425e-05
-3.2276e-06
7.8375e-05
-1.33958e-05
3.04758e-06
7.78668e-05
-3.37078e-06
7.68576e-06
7.47919e-05
2.22973e-06
9.75152e-06
7.00334e-05
1.49597e-06
1.0087e-05
6.46127e-05
-1.91757e-06
9.24286e-06
5.99301e-05
-4.73519e-06
6.36069e-06
5.71951e-05
-5.84038e-06
1.35307e-06
5.6905e-05
-5.68114e-06
-3.79117e-06
5.93641e-05
-7.36758e-06
-5.22197e-06
6.42538e-05
-9.52393e-06
-3.94763e-07
6.93574e-05
-7.01341e-06
7.59776e-06
7.17428e-05
1.20487e-06
1.50885e-05
7.07189e-05
9.08554e-06
1.858e-05
6.87685e-05
1.03528e-05
1.72633e-05
6.92767e-05
3.8683e-06
1.21198e-05
7.30621e-05
-7.95075e-06
5.55028e-06
7.75942e-05
-2.06934e-05
3.60649e-07
7.97609e-05
-2.87239e-05
-2.52942e-06
7.88933e-05
-2.66941e-05
-4.24699e-06
7.72319e-05
-1.09473e-05
-7.58939e-06
7.79977e-05
1.18992e-05
-1.19348e-05
8.27731e-05
2.51703e-05
-1.08794e-05
9.01569e-05
1.99035e-05
-5.39294e-07
9.78174e-05
-1.72934e-06
1.43338e-05
0.000104443
-2.69965e-05
2.59661e-05
0.000109762
-4.4798e-05
3.10775e-05
0.000113669
-5.02724e-05
3.10536e-05
0.000115551
-4.46905e-05
2.84799e-05
0.000114402
-3.27642e-05
2.51115e-05
0.000110208
-2.0866e-05
2.16034e-05
0.000104657
-1.38931e-05
1.79188e-05
9.98065e-05
-1.23096e-05
1.39415e-05
9.65744e-05
-1.31019e-05
9.61986e-06
9.44219e-05
-1.24846e-05
4.68232e-06
9.14716e-05
-8.26112e-06
-9.38221e-07
8.59142e-05
-2.99814e-06
-6.10894e-06
7.88219e-05
-2.5911e-06
-9.31411e-06
7.38904e-05
-8.64641e-06
-1.02899e-05
-1.66029e-05
-8.3963e-06
9.5161e-05
-2.4788e-05
-8.45181e-06
9.79394e-05
-2.22546e-05
-1.5581e-06
9.90779e-05
-1.10452e-05
4.88317e-06
9.75187e-05
-1.91624e-06
8.91919e-06
9.36584e-05
-3.33822e-07
1.03757e-05
8.82399e-05
-3.0679e-06
1.04416e-05
8.24382e-05
-5.94083e-06
8.78362e-06
7.76297e-05
-7.88086e-06
4.49257e-06
7.46529e-05
-8.97298e-06
-1.39511e-06
7.41879e-05
-1.1155e-05
-6.07394e-06
7.68593e-05
-1.45232e-05
-4.84287e-06
8.1759e-05
-1.32412e-05
2.62868e-06
8.57789e-05
-2.94631e-06
1.19386e-05
8.66731e-05
1.02918e-05
1.78661e-05
8.60504e-05
1.59414e-05
1.77157e-05
8.78649e-05
9.2445e-06
1.19599e-05
9.3622e-05
-7.05268e-06
3.9159e-06
0.000100259
-2.48146e-05
-2.55199e-06
0.000103264
-3.57484e-05
-5.30148e-06
0.000100885
-3.42988e-05
-5.82433e-06
9.60905e-05
-1.68012e-05
-7.62835e-06
9.43498e-05
1.14824e-05
-1.17916e-05
9.87929e-05
3.11144e-05
-1.20941e-05
0.000107272
2.63307e-05
-1.79869e-06
0.000115509
-3.11512e-08
1.48573e-05
0.000121434
-3.18859e-05
2.86153e-05
0.00012577
-5.4929e-05
3.45538e-05
0.000129548
-6.34577e-05
3.44755e-05
0.000132929
-5.90889e-05
3.16939e-05
0.000135063
-4.67249e-05
2.81752e-05
0.00013471
-3.26322e-05
2.45933e-05
0.000131663
-2.23405e-05
2.10873e-05
0.000126998
-1.75772e-05
1.77126e-05
0.000121928
-1.62121e-05
1.43882e-05
0.000117296
-1.48302e-05
1.04731e-05
0.000113358
-1.08162e-05
5.0454e-06
0.000108936
-4.94772e-06
-1.49239e-06
0.000102886
-2.52551e-06
-7.09724e-06
9.68379e-05
-7.434e-06
-1.05599e-05
-1.73182e-05
-1.14876e-05
0.000117318
-2.39421e-05
-1.27046e-05
0.000118619
-2.70938e-05
-7.70793e-06
0.00012027
-1.91345e-05
2.35697e-08
0.00012049
-8.97032e-06
5.59162e-06
0.000118804
-5.10995e-06
8.54007e-06
0.000115177
-6.31105e-06
9.594e-06
0.000110136
-8.21695e-06
9.20156e-06
0.00010466
-9.84316e-06
6.47346e-06
9.93518e-05
-1.18694e-05
1.66089e-06
9.4962e-05
-1.42409e-05
-4.25824e-06
9.29926e-05
-1.76677e-05
-6.85858e-06
9.44763e-05
-1.71715e-05
-2.57213e-06
9.77881e-05
-5.86343e-06
5.99952e-06
0.00010043
1.1939e-05
1.31535e-05
0.000102783
2.24342e-05
1.40184e-05
0.000107918
1.61722e-05
8.02795e-06
0.000116698
-4.56634e-06
-1.02542e-06
0.000125655
-2.79963e-05
-7.91686e-06
0.000130031
-4.24463e-05
-1.00808e-05
0.00012694
-4.1307e-05
-9.11282e-06
0.000118701
-2.21801e-05
-8.95913e-06
0.00011291
9.69487e-06
-1.20032e-05
0.000115202
3.43647e-05
-1.29054e-05
0.000122796
3.13504e-05
-3.13252e-06
0.000129699
2.28463e-06
1.39179e-05
0.000134098
-3.50943e-05
2.80667e-05
0.000137784
-6.30266e-05
3.37547e-05
0.000141765
-7.42271e-05
3.33608e-05
0.000145962
-7.09524e-05
3.05171e-05
0.000150212
-5.92667e-05
2.71863e-05
0.000153974
-4.53887e-05
2.40371e-05
0.000155983
-3.38256e-05
2.12921e-05
0.000155081
-2.60283e-05
1.9095e-05
0.00015102
-2.08561e-05
1.73291e-05
0.000144701
-1.63911e-05
1.52064e-05
0.000138123
-1.11146e-05
1.12976e-05
0.000132813
-5.24843e-06
5.06696e-06
0.000128094
-1.90451e-06
-2.01391e-06
0.000122975
-4.509e-06
-8.00568e-06
-1.3428e-05
-1.21641e-05
0.000143274
-1.67496e-05
-1.44943e-05
0.000141597
-2.44596e-05
-1.31015e-05
0.00014112
-2.23274e-05
-6.36269e-06
0.00014112
-1.4942e-05
1.96832e-07
0.000141236
-1.14078e-05
3.94439e-06
0.000140919
-1.21386e-05
5.68964e-06
0.000139372
-1.28299e-05
6.32224e-06
0.000136234
-1.30305e-05
5.42167e-06
0.000131091
-1.46728e-05
2.78998e-06
0.000123766
-1.67968e-05
-1.25566e-06
0.000116038
-1.87811e-05
-5.27741e-06
0.000111273
-1.73883e-05
-5.20987e-06
0.00011092
-5.21199e-06
-2.23083e-07
0.000113845
1.54302e-05
5.14169e-06
0.000119716
2.89798e-05
5.44921e-06
0.000129529
2.22691e-05
-7.35461e-07
0.000141732
-2.61347e-06
-9.54467e-06
0.000152381
-3.12871e-05
-1.55246e-05
0.000157954
-4.96113e-05
-1.65865e-05
0.000155479
-4.873e-05
-1.42131e-05
0.000145209
-2.72086e-05
-1.1936e-05
0.000134788
7.63966e-06
-1.30079e-05
0.000132386
3.59267e-05
-1.35187e-05
0.000136279
3.53218e-05
-4.73939e-06
0.000140643
4.48258e-06
1.10956e-05
0.000144203
-3.76052e-05
2.38307e-05
0.000148455
-6.93302e-05
2.86489e-05
0.000153421
-8.18032e-05
2.80718e-05
0.000158416
-7.84992e-05
2.53209e-05
0.00016348
-6.71179e-05
2.21125e-05
0.000169129
-5.44169e-05
1.92591e-05
0.000175055
-4.4066e-05
1.73602e-05
0.000179468
-3.60089e-05
1.68269e-05
0.000180017
-2.82989e-05
1.74192e-05
0.000175668
-1.98938e-05
1.79223e-05
0.000168043
-1.12989e-05
1.64751e-05
0.000160429
-3.91539e-06
1.18761e-05
0.000154825
2.31073e-07
5.01017e-06
0.000150538
-4.52681e-07
-2.52028e-06
-6.52587e-06
-9.66693e-06
0.000171937
-6.0242e-06
-1.33033e-05
0.000167532
-1.47328e-05
-1.67021e-05
0.000163316
-1.75577e-05
-1.25469e-05
0.000160521
-1.50586e-05
-6.13279e-06
0.000160107
-1.46751e-05
-2.18134e-06
0.000161977
-1.73726e-05
-7.18757e-07
0.000164803
-1.87106e-05
-2.89335e-09
0.000166753
-1.83992e-05
6.07751e-07
0.00016567
-1.91052e-05
3.77596e-07
0.00015919
-2.0147e-05
-4.45226e-07
0.00014746
-1.94035e-05
-2.13975e-06
0.000135465
-1.51221e-05
-3.38594e-06
0.000129454
-1.48412e-06
-3.27174e-06
0.000131495
1.98999e-05
-3.0625e-06
0.000140556
3.32661e-05
-5.85962e-06
0.000154258
2.43662e-05
-1.25576e-05
0.000168382
-3.72558e-06
-1.98022e-05
0.000178947
-3.62762e-05
-2.37851e-05
0.000184439
-5.7685e-05
-2.38354e-05
0.000183368
-5.72918e-05
-2.08655e-05
0.000173854
-3.31119e-05
-1.68417e-05
0.000160382
5.30551e-06
-1.52192e-05
0.000152
3.66919e-05
-1.44261e-05
0.000150366
3.77566e-05
-7.0579e-06
0.000151739
5.36194e-06
5.69733e-06
0.000154963
-3.99052e-05
1.57854e-05
0.000160233
-7.30495e-05
1.95464e-05
0.000166332
-8.471e-05
1.90804e-05
0.000172133
-8.02328e-05
1.67268e-05
0.000177842
-6.88061e-05
1.38289e-05
0.00018434
-5.7365e-05
1.13969e-05
0.000191934
-4.90382e-05
1.04518e-05
0.000199581
-4.29326e-05
1.17289e-05
0.000204892
-3.58789e-05
1.49618e-05
0.00020534
-2.59335e-05
1.8561e-05
0.000200448
-1.42249e-05
2.01229e-05
0.000192636
-3.84046e-06
1.79064e-05
0.000185238
2.42052e-06
1.22688e-05
0.000179874
3.90735e-06
4.689e-06
1.16368e-06
-4.40853e-06
0.000202079
4.85422e-06
-9.61134e-06
0.000196082
-1.2218e-06
-1.78683e-05
0.00018903
-6.29539e-06
-1.74075e-05
0.000183964
-9.06077e-06
-1.17679e-05
0.000182714
-1.3738e-05
-6.87939e-06
0.000184787
-2.02237e-05
-4.36375e-06
0.000188824
-2.36439e-05
-3.60717e-06
0.00019356
-2.36096e-05
-4.23835e-06
0.000196953
-2.39282e-05
-4.98821e-06
0.00019507
-2.44333e-05
-4.06615e-06
0.000184362
-2.13791e-05
-1.3933e-06
0.000167687
-1.26914e-05
4.07731e-07
0.000155168
3.32676e-06
-9.07935e-07
0.000154561
2.36793e-05
-6.04148e-06
0.000165053
3.41848e-05
-1.4033e-05
0.000180461
2.20887e-05
-2.22919e-05
0.000194422
-8.62167e-06
-2.82631e-05
0.000203532
-4.29239e-05
-3.09176e-05
0.000207841
-6.56592e-05
-3.06832e-05
0.000207955
-6.6284e-05
-2.78239e-05
0.000201656
-4.11081e-05
-2.28936e-05
0.00018874
7.41963e-07
-1.87323e-05
0.000175711
3.56018e-05
-1.62935e-05
0.000167821
3.80397e-05
-1.11186e-05
0.000165595
4.48978e-06
-2.64634e-06
0.000168512
-4.10704e-05
3.8992e-06
0.0001747
-7.23939e-05
6.87447e-06
0.000181525
-8.12941e-05
7.35338e-06
0.000187716
-7.52056e-05
6.10393e-06
0.000193834
-6.4036e-05
3.83067e-06
0.000201048
-5.42543e-05
2.00576e-06
0.000209722
-4.81795e-05
2.25247e-06
0.000218849
-4.45367e-05
5.64461e-06
0.000226454
-3.97509e-05
1.16886e-05
0.000230395
-3.10758e-05
1.83026e-05
0.000229515
-1.9016e-05
2.27309e-05
0.000224493
-6.74052e-06
2.29369e-05
0.000217517
2.23632e-06
1.89456e-05
0.000211071
6.65519e-06
1.20605e-05
7.57092e-06
2.25241e-06
0.000232444
1.2555e-05
-4.38542e-06
0.000226684
1.16819e-05
-1.66723e-05
0.0002193
7.14794e-06
-1.99319e-05
0.000214198
-3.01235e-07
-1.49338e-05
0.00021308
-1.05782e-05
-8.11679e-06
0.000214422
-2.07707e-05
-3.49811e-06
0.000216836
-2.60566e-05
-2.12073e-06
0.000220267
-2.66387e-05
-4.06124e-06
0.000224327
-2.68792e-05
-7.62168e-06
0.000226129
-2.74788e-05
-8.67977e-06
0.000220285
-2.35331e-05
-4.54507e-06
0.000204581
-1.14325e-05
2.28825e-06
0.000187313
7.47752e-06
4.96933e-06
0.000181107
2.6631e-05
-1.06732e-06
0.000188856
3.3552e-05
-1.31943e-05
0.00020326
1.86517e-05
-2.49634e-05
0.000216628
-1.30319e-05
-3.28518e-05
0.000225259
-4.70614e-05
-3.62457e-05
0.000228936
-6.98943e-05
-3.57126e-05
0.000229477
-7.27378e-05
-3.25215e-05
0.000226611
-5.02846e-05
-2.76235e-05
0.000217462
-7.87872e-06
-2.25131e-05
0.00020353
3.05163e-05
-1.92235e-05
0.000191272
3.58509e-05
-1.67064e-05
0.000185795
4.11354e-06
-1.35558e-05
0.000187619
-3.88796e-05
-1.00669e-05
0.00019341
-6.58088e-05
-6.61672e-06
0.000199697
-7.1534e-05
-3.96169e-06
0.000205386
-6.45727e-05
-3.59145e-06
0.000211355
-5.44811e-05
-5.41352e-06
0.000219046
-4.69287e-05
-7.14347e-06
0.00022887
-4.35543e-05
-5.89969e-06
0.000239471
-4.24929e-05
-3.61419e-07
0.000248386
-3.99215e-05
8.54866e-06
0.00025344
-3.30084e-05
1.81462e-05
0.000253944
-2.20449e-05
2.50483e-05
0.000250836
-1.00625e-05
2.71802e-05
0.000245735
-2.72685e-07
2.46549e-05
0.000240343
6.0645e-06
1.88127e-05
1.01498e-05
9.29386e-06
0.000262829
1.46466e-05
1.44434e-06
0.000259388
1.98899e-05
-1.34371e-05
0.000254171
1.85243e-05
-1.97852e-05
0.000250354
8.80573e-06
-1.56371e-05
0.000249051
-5.48784e-06
-7.59807e-06
0.000248494
-1.83016e-05
-1.56517e-06
0.000247855
-2.52373e-05
6.79352e-07
0.000248171
-2.70161e-05
-1.30143e-06
0.00025026
-2.71431e-05
-6.45628e-06
0.000252825
-2.74341e-05
-1.017e-05
0.00025136
-2.34745e-05
-7.49352e-06
0.000240595
-1.01078e-05
1.7607e-06
0.000223206
1.09162e-05
9.94483e-06
0.000211265
3.01473e-05
7.55528e-06
0.000212845
3.54455e-05
-5.7967e-06
0.000224163
2.01531e-05
-2.22162e-05
0.000236952
-1.01236e-05
-3.39688e-05
0.000245911
-4.24778e-05
-3.7867e-05
0.000249853
-6.576e-05
-3.53081e-05
0.000250546
-7.282e-05
-3.09643e-05
0.000249481
-5.71592e-05
-2.76379e-05
0.000244387
-1.91217e-05
-2.46564e-05
0.000233317
2.05226e-05
-2.26986e-05
0.000220891
3.06058e-05
-2.30668e-05
0.000213886
4.88131e-06
-2.40434e-05
0.000213656
-3.19155e-05
-2.19237e-05
0.000216894
-5.39247e-05
-1.65027e-05
0.000220942
-5.73212e-05
-1.17622e-05
0.000225258
-5.05546e-05
-1.10287e-05
0.000230646
-4.21483e-05
-1.37092e-05
0.000238431
-3.73086e-05
-1.62333e-05
0.000249193
-3.71699e-05
-1.48646e-05
0.000261584
-3.91386e-05
-7.7284e-06
0.000272478
-3.86618e-05
4.04276e-06
0.0002788
-3.30102e-05
1.70829e-05
0.00027955
-2.26671e-05
2.68569e-05
0.000276311
-1.13668e-05
3.08225e-05
0.000271656
-2.51844e-06
2.94313e-05
0.000267445
3.22234e-06
2.44761e-05
8.23084e-06
1.56428e-05
0.00029482
1.22329e-05
7.86059e-06
0.00029465
2.19313e-05
-7.99512e-06
0.000293273
2.49317e-05
-1.6565e-05
0.000291311
1.65884e-05
-1.42246e-05
0.00028904
1.7718e-06
-7.0453e-06
0.000285645
-1.19438e-05
-1.42735e-06
0.000281373
-2.05186e-05
1.06138e-06
0.000278321
-2.389e-05
-3.4621e-07
0.000278132
-2.50047e-05
-4.896e-06
0.000280246
-2.56822e-05
-9.59125e-06
0.000281002
-2.26373e-05
-8.57944e-06
0.00027472
-9.42627e-06
9.30952e-07
0.000260066
1.32227e-05
1.2898e-05
0.000245357
3.474e-05
1.51441e-05
0.000240948
4.19218e-05
2.57039e-06
0.000247579
2.92014e-05
-1.67267e-05
0.000258236
2.41839e-06
-3.048e-05
0.000267133
-2.77994e-05
-3.24628e-05
0.000272507
-5.27366e-05
-2.60545e-05
0.000274708
-6.53381e-05
-2.0441e-05
0.00027454
-5.79977e-05
-2.07648e-05
0.000271652
-2.81241e-05
-2.37603e-05
0.000264843
8.24469e-06
-2.61235e-05
0.000256069
2.22193e-05
-2.88295e-05
0.000249202
5.36099e-06
-3.02937e-05
0.000245197
-2.20226e-05
-2.69451e-05
0.000243624
-3.85418e-05
-2.04757e-05
0.000244475
-4.08036e-05
-1.64063e-05
0.000247622
-3.52745e-05
-1.74522e-05
0.000252802
-2.92639e-05
-2.1885e-05
0.000260453
-2.73628e-05
-2.56606e-05
0.00027133
-3.05413e-05
-2.51928e-05
0.00028503
-3.56421e-05
-1.82163e-05
0.00029853
-3.73725e-05
-4.4182e-06
0.000307688
-3.24305e-05
1.24171e-05
0.000310284
-2.20861e-05
2.67375e-05
0.000307634
-1.09223e-05
3.3848e-05
0.000302781
-3.10337e-06
3.38965e-05
0.000298211
8.30567e-07
2.95963e-05
4.53469e-06
2.14829e-05
0.000330805
8.58471e-06
1.5364e-05
0.000332193
1.90534e-05
6.10858e-08
0.000333865
2.4797e-05
-1.00477e-05
0.000333636
1.98544e-05
-1.07578e-05
0.000330647
8.0982e-06
-6.58077e-06
0.000324997
-3.78296e-06
-2.78184e-06
0.000318096
-1.2398e-05
-6.19262e-07
0.00031268
-1.7424e-05
-2.77059e-07
0.000311031
-2.06516e-05
-2.76825e-06
0.000312987
-2.37542e-05
-7.19966e-06
0.000315334
-2.36394e-05
-8.57424e-06
0.000312218
-1.24072e-05
-1.53271e-06
0.000299972
1.21702e-05
1.14382e-05
0.00028352
3.87803e-05
1.79621e-05
0.000273383
5.15569e-05
8.7482e-06
0.000274035
4.37368e-05
-9.6827e-06
0.000281672
2.06737e-05
-2.17092e-05
0.000291392
-8.81117e-06
-1.94481e-05
0.000300183
-3.6468e-05
-8.9281e-06
0.000305747
-5.3032e-05
-3.01062e-06
0.000306888
-5.12446e-05
-8.10609e-06
0.000304475
-2.94123e-05
-1.95537e-05
0.000300047
-6.22407e-08
-2.88975e-05
0.000293639
1.50295e-05
-3.36745e-05
0.000284923
7.94064e-06
-3.37706e-05
0.000275839
-8.74029e-06
-2.96964e-05
0.000270375
-2.05882e-05
-2.48102e-05
0.000270337
-2.38057e-05
-2.26678e-05
0.000274404
-2.17282e-05
-2.40552e-05
0.000280438
-1.95424e-05
-2.75717e-05
0.000287706
-2.09313e-05
-3.1255e-05
0.000297256
-2.64755e-05
-3.30156e-05
0.000310405
-3.32815e-05
-2.96871e-05
0.000325776
-3.63324e-05
-1.77122e-05
0.000338751
-3.16737e-05
1.85105e-06
0.000345037
-2.07735e-05
2.2434e-05
0.000344611
-9.07303e-06
3.57082e-05
0.000340531
-1.65263e-06
3.91625e-05
0.000335687
7.0653e-07
3.57804e-05
2.27016e-06
2.80296e-05
0.000372366
6.03052e-06
2.44785e-05
0.000372895
1.48408e-05
1.07163e-05
0.000373979
2.15694e-05
-2.38014e-07
0.000373105
1.99521e-05
-5.05278e-06
0.000369427
1.15874e-05
-5.29509e-06
0.000363574
1.70214e-06
-3.85342e-06
0.000356999
-6.17606e-06
-1.66335e-06
0.000351582
-1.13372e-05
7.48021e-07
0.000349233
-1.50298e-05
1.33928e-06
0.000350265
-1.93726e-05
-1.10017e-06
0.000352379
-2.23733e-05
-4.10495e-06
0.000350558
-1.53934e-05
-1.45394e-06
0.000340143
8.50137e-06
8.02354e-06
0.00032296
4.05791e-05
1.57201e-05
0.000308498
6.11031e-05
1.12011e-05
0.000304465
5.8478e-05
-1.29318e-06
0.000311007
3.57329e-05
-7.53895e-06
0.000323209
2.82362e-06
-1.78295e-06
0.000335598
-2.73321e-05
7.58899e-06
0.000344088
-4.38826e-05
1.17266e-05
0.000346709
-4.09209e-05
3.64038e-06
0.000342976
-2.12243e-05
-1.37918e-05
0.000334481
3.64141e-06
-3.10339e-05
0.000322965
1.82762e-05
-4.08524e-05
0.000310957
1.68508e-05
-4.28447e-05
0.000302651
5.88976e-06
-3.94561e-05
0.000300681
-5.3361e-06
-3.32271e-05
0.000304005
-1.26642e-05
-2.65293e-05
0.000309642
-1.60249e-05
-2.22774e-05
0.000315269
-1.82836e-05
-2.22492e-05
0.000320583
-2.22124e-05
-2.65383e-05
0.000327369
-2.82622e-05
-3.33474e-05
0.000338254
-3.44413e-05
-3.78193e-05
0.000353816
-3.70214e-05
-3.27254e-05
0.000370194
-3.22034e-05
-1.4249e-05
0.000381218
-2.00745e-05
1.17401e-05
0.000384208
-6.55374e-06
3.37965e-05
0.000381672
1.80653e-06
4.41091e-05
0.000377531
3.2079e-06
4.34536e-05
2.37708e-06
3.61231e-05
0.000421711
5.69436e-06
3.30031e-05
0.000420433
1.20151e-05
2.13571e-05
0.000418478
1.83377e-05
1.22716e-05
0.000414409
1.82065e-05
7.46431e-06
0.000408614
1.1135e-05
5.82904e-06
0.000402733
1.2524e-06
4.82823e-06
0.000398309
-6.81001e-06
3.83311e-06
0.000395525
-1.03792e-05
3.62404e-06
0.000394091
-1.08645e-05
4.27695e-06
0.000393505
-1.18738e-05
3.80231e-06
0.000392535
-1.41049e-05
1.44185e-06
0.000388372
-1.023e-05
7.06049e-07
0.000377814
9.72076e-06
5.55222e-06
0.000361448
4.20016e-05
1.21937e-05
0.00034695
6.62424e-05
1.27476e-05
0.000342822
6.51938e-05
8.2179e-06
0.000350443
3.97543e-05
5.7948e-06
0.000363876
3.8207e-06
8.02017e-06
0.000376158
-2.5555e-05
1.20825e-05
0.000384491
-3.83199e-05
1.32195e-05
0.000388973
-3.14385e-05
6.16442e-06
0.000388485
-1.0053e-05
-1.06546e-05
0.000381637
1.43507e-05
-3.11313e-05
0.000370372
2.85007e-05
-4.56219e-05
0.000359841
2.7272e-05
-4.90163e-05
0.00035425
1.48913e-05
-4.19189e-05
0.000353497
-3.34423e-07
-2.88888e-05
0.000354645
-1.20249e-05
-1.6468e-05
0.000355335
-1.83838e-05
-9.57996e-06
0.000355247
-2.26531e-05
-1.00191e-05
0.000355745
-2.84172e-05
-1.71771e-05
0.0003592
-3.56655e-05
-2.90705e-05
0.000367947
-4.13123e-05
-4.11626e-05
0.000382832
-4.22592e-05
-4.49415e-05
0.000401442
-3.64513e-05
-3.23659e-05
0.000417845
-2.34543e-05
-4.86556e-06
0.000426868
-7.3509e-06
2.49445e-05
0.000428415
4.1344e-06
4.45712e-05
0.000426249
6.94083e-06
4.96206e-05
4.90639e-06
4.38543e-05
0.000479304
6.63744e-06
3.77517e-05
0.000477095
9.64979e-06
2.8259e-05
0.000472888
1.33407e-05
2.30876e-05
0.000465575
1.24989e-05
2.23559e-05
0.000456188
5.94267e-06
2.25978e-05
0.000447618
-3.21678e-06
2.00417e-05
0.000442443
-1.03188e-05
1.42479e-05
0.000441022
-1.16418e-05
8.02751e-06
0.000441398
-7.76259e-06
4.26415e-06
0.000440999
-3.12909e-06
2.95484e-06
0.000437651
-7.70583e-07
1.90874e-06
0.000429659
3.59246e-06
1.16028e-06
0.000416642
1.88803e-05
3.87811e-06
0.000401116
4.46234e-05
1.00866e-05
0.00038973
6.37446e-05
1.39445e-05
0.000388621
5.93984e-05
1.21702e-05
0.00039761
3.31714e-05
7.26231e-06
0.000410556
7.54789e-07
4.00014e-06
0.000421323
-2.22692e-05
4.64945e-06
0.000427534
-2.88164e-05
6.30406e-06
0.000431051
-1.86678e-05
2.18704e-06
0.0004338
2.51449e-06
-1.12382e-05
0.000435805
2.42056e-05
-3.04094e-05
0.00043703
3.52953e-05
-4.52038e-05
0.000438802
3.10327e-05
-4.80473e-05
0.000440461
1.62665e-05
-3.89225e-05
0.000438323
7.8229e-07
-2.44044e-05
0.000429985
-9.10657e-06
-1.18599e-05
0.000417651
-1.40847e-05
-5.48149e-06
0.000406157
-2.00846e-05
-6.095e-06
0.000399167
-3.08734e-05
-1.28178e-05
0.000398166
-4.39011e-05
-2.46775e-05
0.000403633
-5.24056e-05
-3.97568e-05
0.000415689
-5.20994e-05
-5.12013e-05
0.000433259
-4.40063e-05
-4.78949e-05
0.000452643
-3.0361e-05
-2.50438e-05
0.000468496
-1.36306e-05
8.17811e-06
0.000477554
7.30704e-07
3.61031e-05
0.000480696
7.31094e-06
4.88882e-05
7.15971e-06
4.71222e-05
0.000539378
8.43163e-06
3.67987e-05
0.000536315
9.6636e-06
3.09691e-05
0.000529705
1.04321e-05
2.8556e-05
0.000518137
8.90401e-06
2.96871e-05
0.000502994
3.54623e-06
3.08594e-05
0.000489675
-5.70796e-06
2.85927e-05
0.000483465
-1.49884e-05
2.18905e-05
0.000484538
-1.72264e-05
1.27206e-05
0.000488469
-9.89472e-06
4.75335e-06
0.000490142
1.90923e-06
6.60434e-07
0.00048601
1.16539e-05
-1.68523e-07
0.000474698
1.93276e-05
1.86938e-07
0.000458384
3.05231e-05
2.35995e-06
0.000442589
4.58563e-05
7.17258e-06
0.000434071
5.48768e-05
9.69613e-06
0.00043623
4.74503e-05
5.20578e-06
0.000447328
2.65401e-05
-3.20859e-06
0.000461574
3.49753e-06
-7.18106e-06
0.00047304
-1.17513e-05
-2.90367e-06
0.000479122
-1.45184e-05
4.52319e-06
0.00048197
-4.79495e-06
5.92107e-06
0.0004858
1.34663e-05
-4.30633e-06
0.000493759
3.02945e-05
-2.26726e-05
0.000505437
3.66695e-05
-3.83072e-05
0.000516956
3.00859e-05
-4.27761e-05
0.000521891
1.72796e-05
-3.58871e-05
0.000515122
7.18467e-06
-2.35925e-05
0.000498494
2.00658e-06
-1.28743e-05
0.00048055
-2.99731e-06
-7.33995e-06
0.000468988
-1.40508e-05
-6.60029e-06
0.000464165
-3.11699e-05
-9.55529e-06
0.000461724
-4.88802e-05
-1.72576e-05
0.00045996
-5.96414e-05
-3.15859e-05
0.000461825
-5.88291e-05
-4.91039e-05
0.000470745
-4.88321e-05
-5.77907e-05
0.000486702
-3.50965e-05
-4.61848e-05
0.000505876
-2.04348e-05
-1.69301e-05
0.00052301
-6.72103e-06
1.47443e-05
0.000534357
2.8636e-06
3.52158e-05
7.04543e-06
4.08347e-05
0.000589927
9.1512e-06
2.59044e-05
0.000586129
1.36977e-05
3.02446e-05
0.000573296
1.68996e-05
3.67885e-05
0.000554084
1.63018e-05
4.40701e-05
0.000535695
8.98591e-06
4.83649e-05
0.000525791
-5.54405e-06
4.69227e-05
0.000526667
-2.17547e-05
3.88817e-05
0.000534567
-2.8961e-05
2.54734e-05
0.000543205
-2.0623e-05
1.07669e-05
0.000546824
-7.82616e-07
4.46691e-07
0.000541942
1.97026e-05
-2.54964e-06
0.000528217
3.42229e-05
-4.82144e-07
0.000509713
4.38203e-05
1.823e-06
0.000493593
5.0338e-05
2.10834e-06
0.00048668
5.15605e-05
-1.86606e-06
0.00049092
4.48763e-05
-1.01774e-05
0.000503376
3.18285e-05
-1.73226e-05
0.000518431
1.69305e-05
-1.60312e-05
0.000530577
4.89456e-06
-5.25823e-06
0.000536874
6.34863e-08
8.90911e-06
0.000538818
4.6726e-06
1.7951e-05
0.000541464
1.67e-05
1.59838e-05
0.000547939
2.86633e-05
4.32504e-06
0.000555621
3.32516e-05
-8.55518e-06
0.000557778
2.9112e-05
-1.49807e-05
0.000550362
2.13238e-05
-1.45625e-05
0.000537012
1.50247e-05
-1.17643e-05
0.000527052
9.78669e-06
-9.34078e-06
0.000527648
1.52942e-06
-5.73725e-06
0.000537293
-1.23502e-05
3.15083e-07
0.000547596
-2.97061e-05
4.67391e-06
0.000550094
-4.56672e-05
4.036e-07
0.000542356
-5.46495e-05
-1.5667e-05
0.000530067
-5.34522e-05
-3.93573e-05
0.000522677
-4.37195e-05
-5.97455e-05
0.000525703
-3.14119e-05
-6.28621e-05
0.000538319
-2.03499e-05
-4.47806e-05
0.000555925
-1.06604e-05
-1.65151e-05
0.000572952
-2.32722e-06
7.33518e-06
4.11199e-06
2.03981e-05
0.000634624
1.91619e-06
1.02647e-05
0.000636898
9.46441e-06
2.55657e-05
0.000629012
1.82436e-05
4.28799e-05
0.000614532
2.12979e-05
5.86712e-05
0.000601631
1.26494e-05
6.73908e-05
0.000595894
-7.18147e-06
6.604e-05
0.000596275
-2.90522e-05
5.53155e-05
0.000599276
-4.0294e-05
3.79644e-05
0.000602185
-3.21452e-05
1.77967e-05
0.000602298
-6.392e-06
1.34177e-06
0.000596311
2.50132e-05
-4.66183e-06
0.000582932
4.93679e-05
-2.87071e-07
0.000565721
6.15868e-05
6.90646e-06
0.000551861
6.39411e-05
9.12527e-06
0.000547379
6.06003e-05
4.32475e-06
0.000552922
5.37939e-05
-2.81001e-06
0.000565268
4.43157e-05
-7.2784e-06
0.000579584
3.2412e-05
-5.56819e-06
0.000591452
1.96594e-05
2.32331e-06
0.000598325
9.94822e-06
1.35582e-05
0.000600245
7.61635e-06
2.40094e-05
0.000599356
1.37193e-05
2.97905e-05
0.000597364
2.37238e-05
2.91015e-05
0.000593679
3.08355e-05
2.39855e-05
0.000587059
3.1575e-05
1.86632e-05
0.000579539
2.75228e-05
1.62386e-05
0.000576405
2.17088e-05
1.83578e-05
0.000581509
1.48466e-05
2.58e-05
0.00059377
5.49599e-06
3.71969e-05
0.00060911
-8.07836e-06
4.69066e-05
0.000623007
-2.40611e-05
4.71144e-05
0.000630978
-3.8359e-05
3.29068e-05
0.000628194
-4.51604e-05
5.81144e-06
0.000614497
-4.09621e-05
-2.8389e-05
0.000597588
-2.94723e-05
-5.87071e-05
0.000587504
-1.8175e-05
-7.42425e-05
0.000588292
-1.10828e-05
-6.86768e-05
0.000597577
-7.11821e-06
-4.77408e-05
0.000610975