/*--------------------------------*- C++ -*----------------------------------*\
| =========                 |                                                 |
| \\      /  F ield         | OpenFOAM: The Open Source CFD Toolbox           |
|  \\    /   O peration     | Version:  5.0                                   |
|   \\  /    A nd           | Web:      www.OpenFOAM.org                      |
|    \\/     M anipulation  |                                                 |
\*---------------------------------------------------------------------------*/
FoamFile
{
    version     2.0;
    format      ascii;
    class       volScalarField;
    location    "50.4676134421789371";
    object      pMean;
}
// * * * * * * * * * * * * * * * * * * * * * * * * * * * * * * * * * * * * * //

dimensions      [0 2 -2 0 0 0 0];

internalField   nonuniform List<scalar> 
60000
(
0
-5.31105e-05
-0.000111455
-0.000131621
-0.000101259
-5.40602e-05
-1.89389e-05
-7.33934e-06
1.10953e-06
4.78737e-06
5.54713e-06
2.21381e-06
1.34025e-06
-4.3733e-06
-3.17662e-05
-7.50009e-05
-9.20174e-05
-2.69433e-05
0.000121282
0.000278626
0.000352251
0.000293628
0.000123135
-8.42567e-05
-0.000178692
-0.000116042
2.65557e-05
0.000139871
0.000196308
0.000219715
0.000225182
0.000209734
0.000175404
0.000140107
0.000124751
0.000140694
0.000160514
0.000138818
8.26945e-05
3.44738e-05
1.05134e-06
-5.23861e-05
-0.000111715
-0.000133191
-0.000103428
-5.53938e-05
-1.92025e-05
-6.81257e-06
2.04414e-06
6.37285e-06
7.30518e-06
3.52322e-06
1.62743e-06
-4.76707e-06
-3.20193e-05
-7.51613e-05
-9.35031e-05
-3.01556e-05
0.000118061
0.000277488
0.000353564
0.000297688
0.000128048
-8.10013e-05
-0.000180459
-0.000122744
1.70329e-05
0.000129704
0.000186696
0.000211616
0.00021942
0.000206633
0.000174177
0.000139261
0.000122289
0.000136105
0.000156224
0.000136856
8.29444e-05
3.56145e-05
4.10887e-06
-4.95922e-05
-0.000111395
-0.000135748
-0.000107716
-5.85293e-05
-2.06536e-05
-7.45997e-06
1.61004e-06
8.08034e-06
1.06271e-05
6.73798e-06
3.03871e-06
-4.98933e-06
-3.28159e-05
-7.69143e-05
-9.72409e-05
-3.71686e-05
0.000111779
0.000275812
0.000355366
0.000300296
0.000130893
-8.10648e-05
-0.000185624
-0.000132161
7.17397e-06
0.00012255
0.000182297
0.000207862
0.000215315
0.000203431
0.000173263
0.000140445
0.000124222
0.000135501
0.000152149
0.000132746
8.14843e-05
3.70071e-05
8.56268e-06
-4.5427e-05
-0.000110631
-0.000138358
-0.00011263
-6.26868e-05
-2.39896e-05
-9.4754e-06
-4.80953e-07
9.49157e-06
1.33266e-05
1.02669e-05
4.907e-06
-4.44603e-06
-3.26555e-05
-7.82665e-05
-0.000101456
-4.56028e-05
0.000103406
0.000273402
0.000358247
0.000302435
0.000131084
-8.47392e-05
-0.00019363
-0.000144631
-5.92878e-06
0.000113343
0.000178995
0.000207845
0.000215295
0.000202876
0.000173727
0.000142846
0.000127664
0.000138084
0.00015155
0.000130272
8.0028e-05
3.84559e-05
1.27093e-05
-4.15027e-05
-0.000110757
-0.000141239
-0.000116867
-6.62672e-05
-2.74988e-05
-1.24447e-05
-4.53195e-06
8.43658e-06
1.54717e-05
1.29491e-05
5.51209e-06
-4.20949e-06
-3.08225e-05
-7.70186e-05
-0.000103881
-5.39282e-05
9.30477e-05
0.000268663
0.000361765
0.000305779
0.000130831
-9.02109e-05
-0.000202925
-0.000160894
-2.72837e-05
9.23094e-05
0.000164919
0.000202788
0.000216114
0.000205847
0.000177057
0.000145868
0.000130127
0.000139191
0.0001527
0.000131629
8.18916e-05
4.11898e-05
1.94258e-05
-3.87185e-05
-0.000113466
-0.00014598
-0.000120302
-6.81308e-05
-2.88792e-05
-1.43862e-05
-9.60255e-06
6.67626e-06
2.0161e-05
1.80645e-05
4.93918e-06
-6.98004e-06
-2.90681e-05
-7.1668e-05
-0.000102099
-5.91307e-05
8.15359e-05
0.000259542
0.00036261
0.000310286
0.000131573
-9.59307e-05
-0.000211279
-0.00017893
-5.64748e-05
5.79048e-05
0.000135025
0.00018447
0.000211102
0.000210447
0.00018496
0.000152293
0.000132929
0.000138534
0.000151691
0.000135204
8.88806e-05
4.90966e-05
3.3835e-05
-3.11537e-05
-0.000117848
-0.000154513
-0.000125178
-6.8298e-05
-2.68727e-05
-1.3175e-05
-1.22438e-05
4.69207e-06
2.85836e-05
3.07947e-05
6.25813e-06
-1.27931e-05
-3.13155e-05
-6.6061e-05
-9.54207e-05
-5.9872e-05
6.99831e-05
0.000244685
0.000356949
0.000313461
0.000132244
-9.88661e-05
-0.000218052
-0.00019865
-9.11229e-05
1.60854e-05
9.60208e-05
0.000155355
0.000196479
0.000210808
0.000194879
0.000163207
0.000138814
0.00013762
0.000148381
0.00013677
9.86813e-05
6.3783e-05
5.5499e-05
-1.45779e-05
-0.000117539
-0.00016533
-0.000134228
-7.10467e-05
-2.39888e-05
-8.41474e-06
-8.92036e-06
4.78571e-06
3.89794e-05
5.25688e-05
2.07683e-05
-1.57788e-05
-3.88484e-05
-6.46206e-05
-8.709e-05
-5.66246e-05
5.76329e-05
0.000221731
0.000340543
0.000311726
0.000134873
-9.72054e-05
-0.000226596
-0.000222112
-0.000127331
-2.50037e-05
5.73569e-05
0.000123498
0.00017517
0.000203073
0.000199062
0.000172661
0.000145689
0.000137381
0.000142696
0.000134815
0.00010585
8.05189e-05
7.74903e-05
9.85841e-06
-0.0001078
-0.000172478
-0.000144783
-7.75212e-05
-2.5587e-05
-5.86443e-06
-2.75805e-06
9.53742e-06
4.83831e-05
7.76301e-05
5.26618e-05
-6.79329e-06
-4.56378e-05
-6.72577e-05
-7.84936e-05
-5.22111e-05
4.09299e-05
0.000186113
0.000308345
0.000300798
0.000139416
-9.32675e-05
-0.000240796
-0.000246851
-0.00015902
-5.79343e-05
2.65716e-05
9.60856e-05
0.000153153
0.000189794
0.000195269
0.000174541
0.000146899
0.000133762
0.000134833
0.000128517
0.000107842
9.27775e-05
9.32109e-05
3.50169e-05
-9.0223e-05
-0.000173441
-0.000154659
-8.75811e-05
-3.42675e-05
-9.40215e-06
1.09637e-06
1.56416e-05
5.39883e-05
9.55024e-05
8.35267e-05
1.23795e-05
-4.37593e-05
-6.44073e-05
-6.88293e-05
-5.15928e-05
1.36399e-05
0.000133174
0.000256212
0.000276344
0.000141132
-8.71123e-05
-0.000254127
-0.000267029
-0.000179951
-7.72671e-05
7.59968e-06
7.65225e-05
0.000134572
0.000176111
0.000188299
0.000171501
0.000142316
0.000124119
0.000122052
0.000118732
0.000105155
9.80596e-05
9.94556e-05
5.3227e-05
-7.15671e-05
-0.000170747
-0.000163915
-9.76748e-05
-4.38832e-05
-1.75864e-05
-9.72728e-07
1.82603e-05
5.54503e-05
0.000100983
9.84018e-05
2.91439e-05
-3.67759e-05
-5.79329e-05
-6.05106e-05
-5.8665e-05
-2.49757e-05
6.70441e-05
0.000188094
0.000237898
0.000138095
-7.61511e-05
-0.000250011
-0.000271686
-0.000183872
-8.30651e-05
-2.77919e-06
6.14941e-05
0.000117602
0.000161999
0.000180598
0.000168135
0.000136592
0.000112217
0.000105982
0.000104754
9.74563e-05
9.58675e-05
9.69325e-05
6.14909e-05
-5.60516e-05
-0.000164684
-0.00016889
-0.000103645
-5.03753e-05
-2.41341e-05
-4.99051e-06
1.87709e-05
5.35515e-05
9.41503e-05
9.89345e-05
3.6904e-05
-3.16847e-05
-5.44147e-05
-5.66024e-05
-6.66669e-05
-5.9883e-05
6.19254e-06
0.000120537
0.000193901
0.000131138
-5.82811e-05
-0.000226582
-0.000250379
-0.000173249
-8.2958e-05
-1.11614e-05
4.67834e-05
9.9638e-05
0.000145959
0.000171715
0.000164436
0.000131188
0.000100065
8.90868e-05
8.87735e-05
8.65066e-05
8.89405e-05
8.93129e-05
6.18088e-05
-4.32365e-05
-0.000150418
-0.000163642
-0.000102466
-5.41499e-05
-2.75033e-05
-9.08451e-06
1.71588e-05
5.08501e-05
8.24602e-05
8.89455e-05
3.66738e-05
-2.79835e-05
-5.36798e-05
-5.4031e-05
-6.56228e-05
-7.19363e-05
-2.70268e-05
7.23501e-05
0.000155804
0.000124266
-3.25113e-05
-0.000179886
-0.000215167
-0.000158311
-8.41391e-05
-2.15139e-05
2.83501e-05
7.69446e-05
0.000126104
0.00016105
0.000159127
0.000125073
8.65816e-05
7.05434e-05
7.10063e-05
7.32638e-05
7.93131e-05
7.77437e-05
5.4676e-05
-3.46547e-05
-0.000131374
-0.000147004
-9.80353e-05
-5.35516e-05
-3.00487e-05
-1.26879e-05
1.18035e-05
4.58173e-05
7.16567e-05
7.50473e-05
3.12647e-05
-2.46842e-05
-5.2908e-05
-5.46868e-05
-5.75311e-05
-5.37937e-05
-1.85103e-05
5.79343e-05
0.000128824
0.000114115
-1.03244e-05
-0.000138828
-0.000181687
-0.000145531
-8.66441e-05
-3.56823e-05
3.86009e-06
4.59079e-05
9.82402e-05
0.00014502
0.000153449
0.000117136
7.0523e-05
4.86466e-05
4.95464e-05
5.62439e-05
6.59806e-05
5.98882e-05
4.27344e-05
-2.97435e-05
-0.000111563
-0.000129706
-9.47079e-05
-5.38838e-05
-2.88803e-05
-1.04162e-05
1.16255e-05
4.18259e-05
6.23403e-05
6.01684e-05
2.19572e-05
-2.42655e-05
-5.30974e-05
-5.39898e-05
-4.44141e-05
-2.48049e-05
5.52637e-06
6.32187e-05
0.000115773
0.000107378
8.28949e-06
-0.000110117
-0.000160693
-0.000139302
-9.20546e-05
-5.33806e-05
-2.50881e-05
1.05043e-05
6.45401e-05
0.000121779
0.000142294
0.000106709
5.19556e-05
2.34819e-05
2.47348e-05
3.49608e-05
4.7381e-05
3.64074e-05
2.67908e-05
-2.73359e-05
-9.5731e-05
-0.000118466
-9.86448e-05
-6.04108e-05
-3.08881e-05
-6.84108e-06
1.74023e-05
4.46196e-05
6.02414e-05
5.36425e-05
1.47448e-05
-2.83259e-05
-5.58542e-05
-5.32477e-05
-3.15076e-05
-1.29704e-05
1.27114e-05
5.67225e-05
0.000100562
9.80562e-05
1.94442e-05
-9.20664e-05
-0.000152164
-0.0001421
-0.000101342
-6.71238e-05
-4.50051e-05
-1.7062e-05
3.26522e-05
9.44249e-05
0.000126155
9.62416e-05
3.2822e-05
-5.22687e-06
-5.45623e-06
8.57241e-06
2.33389e-05
7.27075e-06
4.18288e-06
-3.01642e-05
-7.9592e-05
-0.000101057
-8.74888e-05
-6.03186e-05
-3.05076e-05
-4.97595e-06
1.99217e-05
4.70161e-05
6.29198e-05
5.23603e-05
1.10696e-05
-3.26063e-05
-5.81458e-05
-5.4116e-05
-3.68646e-05
-1.24279e-05
1.24136e-05
4.86481e-05
7.88887e-05
7.74522e-05
1.47943e-05
-8.23717e-05
-0.000141803
-0.000137886
-9.92054e-05
-6.82724e-05
-5.17575e-05
-3.23715e-05
9.55374e-06
7.08565e-05
0.000109998
8.71028e-05
2.03683e-05
-3.02004e-05
-3.67801e-05
-2.12318e-05
-5.24127e-06
-2.49322e-05
-2.12952e-05
-3.80191e-05
-6.85099e-05
-8.70871e-05
-8.51284e-05
-6.54917e-05
-3.57814e-05
-8.70864e-06
1.65267e-05
4.47118e-05
6.27022e-05
5.43688e-05
1.21819e-05
-3.07869e-05
-5.22688e-05
-4.43024e-05
-2.19137e-05
-8.08708e-07
1.90588e-05
4.51953e-05
6.20049e-05
5.63817e-05
8.93955e-06
-6.34639e-05
-0.000109684
-0.000105544
-7.6137e-05
-5.15939e-05
-4.51091e-05
-3.8375e-05
-4.39498e-06
5.83507e-05
0.000104275
8.6463e-05
1.50011e-05
-5.00588e-05
-6.87442e-05
-5.55366e-05
-3.7847e-05
-5.1091e-05
-3.88611e-05
-3.66111e-05
-5.35601e-05
-7.93112e-05
-9.23558e-05
-7.62577e-05
-4.14274e-05
-1.03471e-05
1.46579e-05
4.24296e-05
6.10583e-05
5.60574e-05
1.92432e-05
-1.64181e-05
-3.08799e-05
-2.09237e-05
-3.33313e-06
6.26843e-06
1.12127e-05
1.8242e-05
2.95372e-05
2.09877e-05
-1.09961e-05
-5.38139e-05
-8.24632e-05
-8.54302e-05
-7.15591e-05
-5.70639e-05
-4.93925e-05
-4.02827e-05
-6.10009e-06
6.17633e-05
0.000115857
0.000105477
3.12775e-05
-4.97464e-05
-8.68388e-05
-8.25578e-05
-6.57699e-05
-7.29428e-05
-5.94577e-05
-4.91458e-05
-5.80985e-05
-8.69197e-05
-0.00010335
-8.94388e-05
-5.29825e-05
-1.80113e-05
7.28762e-06
3.35058e-05
5.26654e-05
4.93659e-05
1.90787e-05
-1.04279e-05
-2.61478e-05
-2.01344e-05
-5.52236e-06
3.47583e-06
6.62481e-06
9.02816e-06
1.33791e-05
8.81207e-06
-1.16107e-05
-4.39706e-05
-7.10143e-05
-7.94915e-05
-6.84388e-05
-4.95355e-05
-2.54566e-05
-5.31402e-06
2.46218e-05
7.51593e-05
0.000132353
0.000137562
7.35151e-05
-1.57582e-05
-7.33556e-05
-8.7588e-05
-8.33228e-05
-7.77927e-05
-6.59584e-05
-5.74259e-05
-6.28445e-05
-8.03984e-05
-9.22943e-05
-8.0132e-05
-4.86953e-05
-1.62206e-05
5.72309e-06
2.62152e-05
3.5567e-05
2.68878e-05
-1.65334e-06
-3.0369e-05
-4.37838e-05
-3.64516e-05
-1.71915e-05
-8.28974e-07
4.75269e-06
2.13264e-06
-2.57917e-06
-1.15192e-05
-2.71941e-05
-4.70538e-05
-6.07836e-05
-5.96209e-05
-4.11599e-05
-8.10818e-06
1.97682e-05
4.11537e-05
5.73932e-05
8.44199e-05
0.000128583
0.000149837
0.000106478
2.06343e-05
-5.23969e-05
-8.24462e-05
-8.57635e-05
-9.01253e-05
-7.23249e-05
-5.93914e-05
-6.19014e-05
-7.98159e-05
-9.21797e-05
-8.07084e-05
-4.85986e-05
-1.21918e-05
1.89035e-05
3.12894e-05
2.92891e-05
1.11017e-05
-1.59797e-05
-3.35546e-05
-3.56303e-05
-2.73947e-05
-1.44256e-05
-2.66388e-06
-4.93816e-07
-1.20381e-05
-2.8735e-05
-4.22057e-05
-5.04195e-05
-5.4837e-05
-5.51937e-05
-4.68808e-05
-2.75284e-05
7.86895e-07
2.95317e-05
5.176e-05
6.78886e-05
8.67693e-05
0.000116658
0.000140141
0.000117426
5.03487e-05
-2.70388e-05
-8.17348e-05
-9.98711e-05
-7.91859e-05
-6.96805e-05
-6.30681e-05
-7.3066e-05
-9.26633e-05
-0.000100166
-8.33286e-05
-4.93548e-05
-1.68935e-05
1.91331e-06
1.22502e-05
1.32314e-05
4.40795e-06
-8.93727e-06
-1.86055e-05
-2.1871e-05
-2.4137e-05
-2.59771e-05
-2.28649e-05
-1.74894e-05
-1.89561e-05
-2.94026e-05
-4.22311e-05
-5.36486e-05
-6.00593e-05
-5.93709e-05
-4.44689e-05
-1.52994e-05
1.63529e-05
4.35329e-05
6.18703e-05
7.36268e-05
8.61245e-05
0.000101957
0.000110727
9.86757e-05
5.33577e-05
-6.39482e-06
-5.45894e-05
-7.6742e-05
-6.84512e-05
-6.64212e-05
-6.46967e-05
-7.20667e-05
-8.39221e-05
-8.54637e-05
-6.70399e-05
-3.38887e-05
-2.27893e-06
1.5028e-05
1.43283e-05
9.01531e-07
-1.59232e-05
-2.21275e-05
-2.04312e-05
-1.78666e-05
-2.19683e-05
-3.13257e-05
-3.73713e-05
-3.73532e-05
-3.90109e-05
-4.01499e-05
-4.27596e-05
-4.22716e-05
-3.93641e-05
-3.41584e-05
-2.59688e-05
-1.35151e-05
5.91165e-06
3.01766e-05
5.35904e-05
7.07171e-05
8.54708e-05
9.57517e-05
9.49544e-05
7.84867e-05
4.68333e-05
5.99126e-06
-3.2966e-05
-5.8764e-05
-4.09571e-05
-5.13224e-05
-5.62579e-05
-5.98707e-05
-6.20294e-05
-5.8224e-05
-4.5355e-05
-2.74508e-05
-1.0002e-05
4.85207e-06
1.24072e-05
1.06549e-05
6.99129e-06
9.53333e-06
1.50768e-05
1.26533e-05
-1.52937e-06
-2.33359e-05
-4.38012e-05
-5.84345e-05
-6.528e-05
-6.39436e-05
-5.00691e-05
-3.39237e-05
-1.94828e-05
-9.74081e-06
-3.68605e-06
3.58473e-06
1.64545e-05
3.28065e-05
4.71005e-05
5.67229e-05
6.78975e-05
7.87387e-05
8.92788e-05
8.69035e-05
6.86582e-05
3.91383e-05
6.81226e-06
-2.15464e-05
4.83998e-05
-1.44804e-05
-0.000108994
-0.000165602
-0.000158633
-0.000115626
-5.64367e-05
1.52634e-05
8.4563e-05
0.000116886
0.000100994
7.18277e-05
4.47064e-05
1.06419e-05
-3.9326e-05
-7.95656e-05
-7.33e-05
-6.03755e-06
0.000115757
0.000270447
0.000392083
0.000400306
0.000273177
5.5907e-05
-0.000149523
-0.000221852
-0.000174879
-8.8962e-05
-7.47198e-06
6.75208e-05
0.000134077
0.000181532
0.000205366
0.00020718
0.00020938
0.0002396
0.000270072
0.000238508
0.000155404
8.94182e-05
4.98552e-05
-1.22443e-05
-0.000106665
-0.000164032
-0.000158108
-0.00011634
-5.84693e-05
1.24283e-05
8.25996e-05
0.000116406
0.000101605
7.27823e-05
4.5149e-05
1.04634e-05
-4.04322e-05
-8.27135e-05
-7.94559e-05
-1.49523e-05
0.000105168
0.000260128
0.000384386
0.000396583
0.000273092
5.84899e-05
-0.000147487
-0.000222295
-0.00017776
-9.3153e-05
-1.21414e-05
6.28721e-05
0.00012961
0.00017723
0.000200846
0.000201644
0.000201608
0.000229747
0.000261831
0.000234749
0.000155215
9.0128e-05
5.32126e-05
-8.42126e-06
-0.000104065
-0.00016387
-0.000159725
-0.000118744
-6.13919e-05
9.55397e-06
8.10053e-05
0.000116156
0.000102292
7.26731e-05
4.38784e-05
8.17663e-06
-4.39111e-05
-8.81661e-05
-8.75707e-05
-2.52142e-05
9.43751e-05
0.000251179
0.000378234
0.000393527
0.000272821
6.04134e-05
-0.000146414
-0.00022373
-0.00018081
-9.67041e-05
-1.6373e-05
5.74424e-05
0.000123517
0.000171966
0.000197037
0.000200666
0.000201502
0.00022695
0.000255255
0.000229277
0.000154444
9.2359e-05
5.8496e-05
-3.49618e-06
-0.000102541
-0.00016624
-0.000164058
-0.000123401
-6.50967e-05
6.46875e-06
8.02386e-05
0.000116059
0.000103263
7.17106e-05
4.1674e-05
5.27227e-06
-4.79603e-05
-9.44095e-05
-9.68302e-05
-3.73049e-05
8.21312e-05
0.000242409
0.00037378
0.000392373
0.000272556
6.14023e-05
-0.000147683
-0.000228505
-0.000187565
-0.000102772
-2.11185e-05
5.3126e-05
0.000119035
0.00016788
0.000194117
0.000199993
0.000204217
0.000229237
0.00025348
0.000225912
0.000153313
9.49187e-05
6.62727e-05
3.43744e-06
-0.000102037
-0.000171467
-0.000170978
-0.000130195
-7.07121e-05
1.79109e-06
7.89556e-05
0.000117821
0.000105269
7.088e-05
3.89924e-05
3.08443e-06
-5.03744e-05
-9.92627e-05
-0.000106445
-5.24327e-05
6.43743e-05
0.000227438
0.000365388
0.000390007
0.000272258
6.2842e-05
-0.00014978
-0.000237441
-0.000202443
-0.00011798
-3.19188e-05
4.76138e-05
0.000116832
0.000166692
0.000192248
0.000197404
0.000202137
0.000228085
0.000253101
0.00022534
0.000153264
9.74637e-05
7.74597e-05
1.50676e-05
-0.000100773
-0.000179698
-0.000180414
-0.000138241
-7.69648e-05
-4.01712e-06
7.59705e-05
0.000121447
0.000108271
7.05334e-05
3.52073e-05
7.73744e-07
-5.0235e-05
-0.000100244
-0.00011294
-6.78358e-05
4.28653e-05
0.000205115
0.000349434
0.000382415
0.000269936
6.42767e-05
-0.000151336
-0.000248968
-0.000226062
-0.000146529
-5.57735e-05
3.40556e-05
0.000113241
0.000168599
0.000193953
0.000195325
0.000195734
0.000218957
0.000246474
0.000223611
0.000154897
0.000100856
9.18391e-05
3.29006e-05
-9.44061e-05
-0.00018931
-0.0001922
-0.000146412
-8.20939e-05
-8.81357e-06
7.2081e-05
0.000125082
0.000114056
7.22383e-05
2.9226e-05
-5.14038e-06
-5.03827e-05
-9.7476e-05
-0.000114031
-7.8479e-05
2.16921e-05
0.000178181
0.000325878
0.000368182
0.000264383
6.36828e-05
-0.000152667
-0.000260948
-0.00025461
-0.000184562
-9.08854e-05
9.95409e-06
0.000101858
0.000166817
0.000195788
0.000194373
0.000187767
0.000203461
0.000230525
0.000216937
0.000156755
0.000106852
0.000108883
5.70958e-05
-8.12038e-05
-0.000194788
-0.000202917
-0.000155182
-8.65898e-05
-1.24052e-05
6.64341e-05
0.000123038
0.000120286
7.48562e-05
2.10161e-05
-1.70008e-05
-5.48452e-05
-9.37147e-05
-0.000109989
-8.26992e-05
4.32943e-06
0.000149431
0.000296084
0.000348181
0.000255721
6.06798e-05
-0.000154809
-0.000272866
-0.000282683
-0.000221702
-0.000125696
-1.65098e-05
8.54526e-05
0.000159176
0.000192967
0.000190511
0.000177667
0.000184087
0.000205853
0.000202466
0.000156473
0.000117039
0.000128266
8.53083e-05
-6.16936e-05
-0.00019397
-0.000209093
-0.00015836
-9.01563e-05
-1.6654e-05
5.736e-05
0.000114478
0.000121473
8.00014e-05
1.27506e-05
-3.36168e-05
-6.31155e-05
-8.8626e-05
-9.92489e-05
-7.92201e-05
-8.81933e-06
0.000119574
0.000260619
0.000322273
0.000244253
5.68592e-05
-0.000157021
-0.000284508
-0.000304755
-0.000249011
-0.000151076
-3.72767e-05
7.01235e-05
0.00014983
0.000187815
0.000183825
0.000164419
0.000161507
0.000177423
0.000180791
0.000151304
0.000126696
0.000145439
0.000111784
-4.09405e-05
-0.000191085
-0.000214673
-0.000160797
-9.12115e-05
-2.2755e-05
4.35716e-05
9.86978e-05
0.000116807
8.30771e-05
1.24984e-05
-4.71368e-05
-7.15566e-05
-8.0042e-05
-8.34958e-05
-7.07703e-05
-1.88448e-05
8.88691e-05
0.000219143
0.000289025
0.000229487
5.37176e-05
-0.000155585
-0.000289775
-0.000314885
-0.000261417
-0.000163155
-4.85983e-05
5.93784e-05
0.000141894
0.000183859
0.000178167
0.000150788
0.00013721
0.00014629
0.000153961
0.000139825
0.000131058
0.000155599
0.000127877
-2.63948e-05
-0.000193092
-0.000229614
-0.000169548
-9.68476e-05
-3.27644e-05
2.57571e-05
7.86904e-05
0.000105815
8.48436e-05
1.78938e-05
-5.09992e-05
-7.97408e-05
-7.57495e-05
-6.93512e-05
-6.07948e-05
-2.58447e-05
5.90381e-05
0.000173594
0.000248365
0.000210397
5.34764e-05
-0.000148297
-0.000282705
-0.000306023
-0.000251282
-0.000155812
-4.90083e-05
5.15682e-05
0.000132855
0.00017882
0.000174686
0.000139684
0.00011468
0.000115939
0.000125363
0.000122949
0.000127879
0.00014982
0.000126277
-2.26596e-05
-0.000197843
-0.000241959
-0.000177274
-0.000101695
-4.40481e-05
4.44683e-06
5.48851e-05
9.07302e-05
8.312e-05
2.47831e-05
-4.73224e-05
-8.8292e-05
-7.79206e-05
-5.69489e-05
-4.55502e-05
-2.49389e-05
3.4918e-05
0.000129924
0.000205881
0.000188499
5.32776e-05
-0.000135427
-0.000259343
-0.000277165
-0.000224417
-0.00014086
-4.92972e-05
3.96938e-05
0.00011916
0.000171554
0.000172462
0.000131321
9.45844e-05
8.78883e-05
9.80138e-05
0.000103879
0.000116825
0.000132569
0.000111987
-2.80046e-05
-0.000197592
-0.00024047
-0.000172056
-9.34905e-05
-4.33643e-05
-6.6861e-06
3.60852e-05
7.74771e-05
8.10024e-05
3.10083e-05
-4.03508e-05
-8.98239e-05
-7.82587e-05
-4.29447e-05
-2.22726e-05
-1.02154e-05
2.52917e-05
9.59702e-05
0.000167321
0.000166372
5.06713e-05
-0.000119988
-0.000228605
-0.000246013
-0.00020239
-0.000131696
-5.57858e-05
1.9641e-05
9.64548e-05
0.000158009
0.000169997
0.000125673
7.5504e-05
6.00442e-05
7.09644e-05
8.3987e-05
0.00010136
0.000109052
8.90896e-05
-3.37909e-05
-0.000181177
-0.000214595
-0.000148681
-7.85557e-05
-3.52617e-05
-5.98625e-06
2.67543e-05
6.90856e-05
8.08637e-05
3.73366e-05
-3.25436e-05
-8.23454e-05
-7.34127e-05
-2.88879e-05
7.25488e-06
1.9756e-05
3.65117e-05
7.93321e-05
0.000135478
0.000141489
4.54256e-05
-0.000102818
-0.000203145
-0.00022265
-0.000186073
-0.000127901
-7.10695e-05
-1.16072e-05
6.17119e-05
0.000134318
0.00016083
0.000121736
5.76658e-05
3.07757e-05
4.13744e-05
6.1426e-05
8.30186e-05
8.28453e-05
6.42882e-05
-3.24305e-05
-0.000146586
-0.000174928
-0.000127131
-7.21138e-05
-3.27943e-05
-4.64829e-06
2.6009e-05
6.72974e-05
8.47241e-05
4.49017e-05
-2.43908e-05
-7.3679e-05
-7.15799e-05
-2.05601e-05
3.17175e-05
4.53982e-05
5.23864e-05
7.44529e-05
0.000114615
0.000120497
4.09539e-05
-9.06695e-05
-0.000185665
-0.000204158
-0.000175826
-0.000132331
-9.05798e-05
-4.2794e-05
2.4602e-05
0.000102322
0.000143446
0.000112365
4.20657e-05
1.70975e-06
1.01472e-05
3.56065e-05
6.11329e-05
5.46557e-05
4.06577e-05
-2.96776e-05
-0.000114663
-0.00014241
-0.000112317
-6.94962e-05
-3.25907e-05
-3.69776e-06
2.7201e-05
6.78204e-05
8.93743e-05
5.2721e-05
-1.83231e-05
-6.76384e-05
-7.18633e-05
-2.21187e-05
2.71005e-05
4.48274e-05
5.02982e-05
6.34549e-05
9.66551e-05
0.000103909
3.72506e-05
-8.65225e-05
-0.000180379
-0.000205606
-0.000179279
-0.000137569
-9.72348e-05
-5.65628e-05
-1.32449e-06
7.01771e-05
0.000119109
9.85539e-05
2.87543e-05
-2.70464e-05
-2.5039e-05
4.71251e-06
3.46609e-05
2.37475e-05
1.60388e-05
-3.26301e-05
-9.31978e-05
-0.000114905
-9.53053e-05
-6.35604e-05
-3.29519e-05
-3.88628e-06
2.8374e-05
6.91483e-05
9.49626e-05
6.13855e-05
-1.36875e-05
-6.82727e-05
-7.40887e-05
-3.06693e-05
1.08471e-05
3.08798e-05
3.70889e-05
4.40722e-05
6.72811e-05
7.58082e-05
2.28602e-05
-8.63957e-05
-0.000176099
-0.000198296
-0.00016591
-0.000119617
-8.08798e-05
-4.84291e-05
-6.78208e-06
5.20782e-05
9.86887e-05
8.54566e-05
1.39136e-05
-5.01966e-05
-6.08333e-05
-3.13433e-05
2.75734e-06
-1.30757e-05
-1.04335e-05
-3.75553e-05
-7.53209e-05
-9.21169e-05
-8.45445e-05
-6.48408e-05
-3.93045e-05
-1.08371e-05
2.36235e-05
6.88814e-05
9.84841e-05
7.23909e-05
-3.79924e-06
-7.02562e-05
-8.31213e-05
-4.72412e-05
-5.79746e-06
2.09238e-05
2.87593e-05
3.1636e-05
4.22694e-05
4.51257e-05
6.19735e-06
-7.54558e-05
-0.000144691
-0.000157237
-0.000127394
-8.73134e-05
-5.96801e-05
-3.64769e-05
1.00489e-06
5.68157e-05
9.87563e-05
8.53714e-05
1.16707e-05
-6.97378e-05
-9.59344e-05
-7.61252e-05
-3.90559e-05
-5.13313e-05
-3.75302e-05
-4.205e-05
-6.00403e-05
-7.72879e-05
-8.28814e-05
-7.12524e-05
-4.59729e-05
-1.65332e-05
1.5943e-05
5.62005e-05
9.00842e-05
7.29817e-05
4.91959e-06
-6.47152e-05
-8.39811e-05
-5.43691e-05
-1.30863e-05
1.14597e-05
1.65508e-05
1.56708e-05
1.99325e-05
1.69767e-05
-9.72002e-06
-6.04442e-05
-0.000103502
-0.000115294
-0.00010422
-8.58743e-05
-6.7911e-05
-4.15854e-05
1.36436e-05
8.09284e-05
0.0001235
0.000108301
3.2674e-05
-5.80519e-05
-0.000112076
-0.000108488
-7.95516e-05
-7.46613e-05
-5.80787e-05
-5.29807e-05
-6.1599e-05
-7.92338e-05
-9.01624e-05
-8.1425e-05
-5.42177e-05
-2.23428e-05
7.98758e-06
4.19241e-05
6.86819e-05
5.63295e-05
2.24642e-06
-5.87187e-05
-8.00973e-05
-6.0526e-05
-2.56044e-05
-2.71865e-08
8.12482e-06
7.72794e-06
6.84834e-06
7.4024e-07
-1.84146e-05
-5.20015e-05
-8.26317e-05
-9.83217e-05
-8.67661e-05
-6.2682e-05
-3.34357e-05
-1.73068e-06
4.45113e-05
0.000114276
0.000155655
0.000147409
7.49422e-05
-2.60679e-05
-9.7138e-05
-0.000114858
-9.87916e-05
-8.93222e-05
-7.28361e-05
-6.58764e-05
-6.89683e-05
-7.89392e-05
-8.47935e-05
-7.51032e-05
-4.97759e-05
-2.02287e-05
7.25276e-06
3.34768e-05
5.29424e-05
4.21143e-05
3.10322e-07
-4.90394e-05
-7.44934e-05
-6.51357e-05
-3.43327e-05
-6.36931e-06
4.1634e-06
3.84154e-07
-6.6097e-06
-1.42452e-05
-2.70281e-05
-4.59549e-05
-5.86647e-05
-5.19535e-05
-2.84842e-05
4.64007e-06
3.22942e-05
5.04639e-05
7.15558e-05
0.000116089
0.000163299
0.000174963
0.000112781
6.07663e-06
-8.2663e-05
-0.000115041
-0.000109803
-0.000119879
-9.19127e-05
-7.25245e-05
-6.73021e-05
-7.56719e-05
-8.30122e-05
-7.40862e-05
-4.80739e-05
-1.62152e-05
1.20064e-05
3.18025e-05
4.23391e-05
3.0166e-05
-2.81419e-06
-3.4735e-05
-4.61496e-05
-3.7334e-05
-1.93838e-05
-3.15195e-06
1.717e-06
-6.88765e-06
-1.97052e-05
-2.87023e-05
-3.27047e-05
-3.45576e-05
-3.1011e-05
-1.75923e-05
3.71474e-06
2.86749e-05
4.88243e-05
6.11632e-05
7.45489e-05
0.000101767
0.000140369
0.00016198
0.000129464
4.1954e-05
-5.66464e-05
-0.000125018
-0.000137583
-0.000108031
-9.31485e-05
-7.90894e-05
-7.87861e-05
-8.84263e-05
-9.24334e-05
-7.66876e-05
-4.72536e-05
-1.6958e-05
5.52972e-06
1.90183e-05
2.23576e-05
1.35215e-05
-3.26056e-06
-1.64768e-05
-2.0917e-05
-2.34359e-05
-2.71462e-05
-2.64924e-05
-2.13812e-05
-2.05094e-05
-2.40349e-05
-3.42089e-05
-4.47629e-05
-5.09828e-05
-4.80586e-05
-3.2607e-05
-4.37964e-06
2.54779e-05
4.91832e-05
6.36208e-05
7.53012e-05
9.14604e-05
0.000109632
0.000121032
0.000102935
4.86705e-05
-2.10753e-05
-7.69584e-05
-0.000106336
-8.31845e-05
-7.94673e-05
-7.262e-05
-7.25445e-05
-7.78588e-05
-7.78016e-05
-6.22371e-05
-3.40937e-05
-3.70937e-06
2.09407e-05
3.39758e-05
3.60185e-05
2.75528e-05
1.16674e-05
4.39713e-07
-7.47981e-06
-1.91707e-05
-3.54167e-05
-4.75877e-05
-5.06401e-05
-4.70938e-05
-4.28635e-05
-4.01195e-05
-3.75361e-05
-3.4146e-05
-2.84773e-05
-1.9832e-05
-8.10899e-06
8.23814e-06
2.8942e-05
5.01172e-05
6.86828e-05
8.50574e-05
9.40631e-05
9.39159e-05
7.88083e-05
4.53745e-05
-9.276e-08
-4.37296e-05
-7.29336e-05
-4.46305e-05
-5.18929e-05
-5.29641e-05
-5.44612e-05
-5.7677e-05
-5.66229e-05
-4.66344e-05
-2.96375e-05
-1.08333e-05
6.85189e-06
2.07064e-05
2.76262e-05
3.09242e-05
3.42485e-05
3.80343e-05
3.42686e-05
1.40607e-05
-1.78749e-05
-4.77548e-05
-6.45135e-05
-6.56673e-05
-5.55797e-05
-3.89605e-05
-2.34897e-05
-1.18991e-05
-5.96137e-06
-5.14865e-06
-4.26326e-06
4.05658e-06
1.93171e-05
3.70201e-05
5.31807e-05
6.95418e-05
8.23272e-05
8.8163e-05
8.15533e-05
6.06721e-05
3.00642e-05
-1.79446e-06
-2.79732e-05
0.00013017
-2.55204e-06
-0.000138103
-0.000163598
-9.76702e-05
-3.23626e-05
-3.07793e-06
5.5813e-06
6.93818e-06
1.96661e-05
3.93403e-05
4.89414e-05
3.69006e-05
4.02275e-06
-4.27189e-05
-7.70212e-05
-8.34808e-05
-5.88855e-05
1.20408e-05
0.000147606
0.000293325
0.000355215
0.000285699
0.000113017
-8.76489e-05
-0.000225552
-0.000260245
-0.000220467
-0.000142262
-4.45001e-05
5.35196e-05
0.000129855
0.00017189
0.000183794
0.00018603
0.000198041
0.000204525
0.000180938
0.000154952
0.000158313
0.00013274
6.16229e-07
-0.000136066
-0.000162557
-9.66871e-05
-3.1056e-05
-1.78323e-06
7.08663e-06
8.45835e-06
2.12596e-05
4.11219e-05
5.08983e-05
3.90969e-05
6.0323e-06
-4.27504e-05
-7.92443e-05
-8.77683e-05
-6.47327e-05
4.66026e-06
0.000139028
0.000285232
0.000349551
0.000283042
0.000113905
-8.43983e-05
-0.000222246
-0.000257945
-0.000219294
-0.000142164
-4.52555e-05
5.16525e-05
0.000126763
0.000167153
0.000177339
0.00017826
0.000189688
0.000196967
0.000175263
0.000151699
0.000158088
0.000138299
6.55276e-06
-0.000133847
-0.000162931
-9.72034e-05
-3.08224e-05
-8.50509e-07
8.84287e-06
9.92049e-06
2.17425e-05
4.10856e-05
5.0793e-05
3.86336e-05
5.04042e-06
-4.53687e-05
-8.4235e-05
-9.52403e-05
-7.39972e-05
-5.08041e-06
0.00013156
0.000281672
0.000347544
0.000281697
0.00011548
-8.0622e-05
-0.00021883
-0.000256449
-0.000219808
-0.000144695
-4.94049e-05
4.7244e-05
0.000123247
0.00016497
0.000175933
0.000176416
0.00018593
0.000190829
0.000168071
0.000146242
0.000158381
0.000146071
1.43633e-05
-0.000133693
-0.000166747
-0.000100642
-3.296e-05
-1.77517e-06
9.67676e-06
1.11995e-05
2.1368e-05
3.89477e-05
4.86336e-05
3.64311e-05
2.08146e-06
-4.97608e-05
-9.08953e-05
-0.000104938
-8.68162e-05
-1.9529e-05
0.000121043
0.000279852
0.00034958
0.000283803
0.00011755
-7.78894e-05
-0.00021767
-0.000258512
-0.000223971
-0.000150191
-5.5694e-05
4.10694e-05
0.000118532
0.000162838
0.000176455
0.00017824
0.000186731
0.000188922
0.000163299
0.000140421
0.000159282
0.0001573
2.57762e-05
-0.000135409
-0.000174667
-0.000107317
-3.75411e-05
-4.93384e-06
8.83165e-06
1.26079e-05
2.04058e-05
3.55978e-05
4.36082e-05
3.31403e-05
-6.39703e-07
-5.39043e-05
-9.70593e-05
-0.000115009
-0.000102359
-4.06762e-05
0.000100862
0.000270143
0.000349069
0.000287374
0.000120195
-7.49103e-05
-0.000217852
-0.000264784
-0.000233248
-0.000159422
-6.3921e-05
3.3641e-05
0.000112055
0.000157764
0.000173357
0.000177005
0.000186147
0.000188128
0.000161316
0.000136188
0.000160848
0.000172709
4.30085e-05
-0.000136378
-0.000186827
-0.000117653
-4.47641e-05
-1.06547e-05
5.29196e-06
1.33785e-05
1.86964e-05
2.9901e-05
3.43588e-05
2.53091e-05
-4.45084e-06
-5.56223e-05
-0.000100041
-0.000122325
-0.000117307
-6.50374e-05
7.21702e-05
0.000248847
0.000340753
0.00028573
0.000121585
-7.06502e-05
-0.000217755
-0.000275312
-0.000250027
-0.000175297
-7.52418e-05
2.4845e-05
0.000104775
0.000150731
0.000166113
0.000169645
0.000179539
0.000184505
0.000159346
0.000133894
0.000163765
0.000191357
6.67505e-05
-0.00013157
-0.0002019
-0.000131828
-5.44662e-05
-1.87713e-05
-1.43363e-06
1.03745e-05
1.58023e-05
2.15841e-05
1.93808e-05
1.09358e-05
-1.17639e-05
-5.72713e-05
-9.97756e-05
-0.00012522
-0.000129396
-8.78634e-05
4.10404e-05
0.000219762
0.000324626
0.000278171
0.000120954
-6.61085e-05
-0.000216772
-0.000288067
-0.0002732
-0.000198579
-9.30757e-05
1.2295e-05
9.4797e-05
0.000141307
0.000155495
0.000156368
0.000164919
0.00017295
0.000154295
0.000133307
0.000168474
0.000213136
9.70919e-05
-0.000118419
-0.000216145
-0.000149932
-6.55472e-05
-2.68077e-05
-9.67083e-06
3.71494e-06
1.36791e-05
1.18377e-05
-4.9317e-07
-1.07238e-05
-2.34348e-05
-5.93692e-05
-9.69176e-05
-0.000123456
-0.000136173
-0.000106303
1.26476e-05
0.000188745
0.000303993
0.000268646
0.000119292
-6.29584e-05
-0.000215601
-0.00029872
-0.000294723
-0.000222
-0.000114639
-2.96172e-06
8.18641e-05
0.000129008
0.000141288
0.000137646
0.00014247
0.000152798
0.000143499
0.00013161
0.000173685
0.000232994
0.00012864
-0.0001007
-0.00022469
-0.000168436
-7.66883e-05
-3.08408e-05
-1.40609e-05
-3.52244e-06
9.53135e-06
8.4225e-06
-1.75084e-05
-3.68894e-05
-4.11613e-05
-6.2455e-05
-9.21957e-05
-0.00011708
-0.000135973
-0.000117335
-1.18434e-05
0.000159099
0.000281155
0.000260135
0.000119581
-5.9702e-05
-0.000214671
-0.000304576
-0.000307555
-0.00023705
-0.000128263
-1.40611e-05
7.27909e-05
0.000120348
0.000128886