/*--------------------------------*- C++ -*----------------------------------*\
| =========                 |                                                 |
| \\      /  F ield         | OpenFOAM: The Open Source CFD Toolbox           |
|  \\    /   O peration     | Version:  5.0                                   |
|   \\  /    A nd           | Web:      www.OpenFOAM.org                      |
|    \\/     M anipulation  |                                                 |
\*---------------------------------------------------------------------------*/
FoamFile
{
    version     2.0;
    format      ascii;
    class       volScalarField;
    location    "50.4676134421789371";
    object      pPrime;
}
// * * * * * * * * * * * * * * * * * * * * * * * * * * * * * * * * * * * * * //

dimensions      [0 2 -2 0 0 0 0];

internalField   nonuniform List<scalar> 
60000
(
0
3.34343e-06
-6.05723e-06
-2.2363e-05
-3.66237e-05
-3.99263e-05
-3.11664e-05
-2.41719e-05
-2.14579e-05
-2.067e-05
-1.37745e-05
-1.17043e-05
-1.24744e-05
-1.22535e-05
-7.57395e-06
-5.44737e-06
-1.4302e-05
-4.1666e-05
-5.79933e-05
-5.44123e-05
-2.78566e-05
7.32449e-06
4.05783e-05
2.86147e-05
-2.75947e-06
-4.3866e-05
-5.28564e-05
-3.74554e-05
-2.4934e-05
-2.36059e-05
-2.32565e-05
-1.40846e-05
-4.17244e-06
-1.23054e-06
-5.58197e-06
-2.12176e-05
-2.5296e-05
-1.47755e-05
-4.799e-06
-2.25514e-06
-3.76399e-07
3.12623e-06
-5.99672e-06
-2.21954e-05
-3.66077e-05
-3.99077e-05
-3.15601e-05
-2.43555e-05
-2.07536e-05
-2.10088e-05
-1.37806e-05
-1.16944e-05
-1.24151e-05
-1.23478e-05
-7.68373e-06
-5.03287e-06
-1.36366e-05
-4.10767e-05
-5.80738e-05
-5.49535e-05
-2.82081e-05
7.09028e-06
4.12256e-05
2.98113e-05
-8.05855e-07
-4.16714e-05
-5.10943e-05
-3.65406e-05
-2.48639e-05
-2.41588e-05
-2.39994e-05
-1.48928e-05
-4.90918e-06
-2.0073e-06
-6.42663e-06
-2.16982e-05
-2.63895e-05
-1.52836e-05
-5.34992e-06
-2.14691e-06
-1.16115e-06
3.34928e-06
-4.85502e-06
-2.08667e-05
-3.58937e-05
-3.92361e-05
-3.25618e-05
-2.45924e-05
-2.11846e-05
-2.21863e-05
-1.39566e-05
-1.18376e-05
-1.20929e-05
-1.20865e-05
-7.63616e-06
-4.98786e-06
-1.34709e-05
-4.00247e-05
-5.80022e-05
-5.56912e-05
-2.8034e-05
7.53385e-06
4.16887e-05
3.02088e-05
1.17711e-06
-3.94498e-05
-4.95142e-05
-3.60301e-05
-2.44818e-05
-2.29808e-05
-2.26842e-05
-1.50605e-05
-6.63218e-06
-4.15447e-06
-6.68025e-06
-2.03606e-05
-2.50402e-05
-1.52535e-05
-6.07731e-06
-3.04357e-06
-2.51976e-06
3.56326e-06
-3.45216e-06
-1.93958e-05
-3.46248e-05
-3.87192e-05
-3.27353e-05
-2.48968e-05
-2.16325e-05
-2.29571e-05
-1.49514e-05
-1.20388e-05
-1.16399e-05
-1.17866e-05
-7.45433e-06
-4.67525e-06
-1.36119e-05
-3.99536e-05
-5.86209e-05
-5.77023e-05
-2.8565e-05
8.55542e-06
4.3443e-05
3.06569e-05
3.40152e-06
-3.73406e-05
-4.80772e-05
-3.61484e-05
-2.53461e-05
-2.29919e-05
-2.19719e-05
-1.50313e-05
-7.33657e-06
-4.67493e-06
-7.96725e-06
-1.9977e-05
-2.36641e-05
-1.47744e-05
-6.8356e-06
-4.8695e-06
-3.79124e-06
3.89386e-06
-2.27861e-06
-1.86456e-05
-3.39676e-05
-3.82606e-05
-3.2697e-05
-2.49285e-05
-2.19014e-05
-2.29866e-05
-1.60419e-05
-1.21243e-05
-1.09302e-05
-1.16954e-05
-7.55677e-06
-4.19455e-06
-1.34676e-05
-4.02426e-05
-5.94717e-05
-6.09253e-05
-3.0809e-05
9.62918e-06
4.65789e-05
3.11356e-05
6.0871e-06
-3.50276e-05
-4.62285e-05
-3.62654e-05
-2.73626e-05
-2.49014e-05
-2.27309e-05
-1.56254e-05
-8.01944e-06
-5.03259e-06
-8.56104e-06
-1.99196e-05
-2.32576e-05
-1.49942e-05
-7.68707e-06
-6.57338e-06
-4.45668e-06
5.23448e-06
-7.31589e-07
-1.81926e-05
-3.46234e-05
-3.81891e-05
-3.30838e-05
-2.52241e-05
-2.16754e-05
-2.39532e-05
-1.79611e-05
-1.21726e-05
-9.42666e-06
-1.14918e-05
-8.48965e-06
-4.91797e-06
-1.2829e-05
-3.80915e-05
-5.92073e-05
-6.37165e-05
-3.42662e-05
9.71677e-06
5.05007e-05
3.27166e-05
8.95555e-06
-3.20466e-05
-4.32973e-05
-3.56662e-05
-2.93011e-05
-2.80162e-05
-2.55753e-05
-1.75646e-05
-8.92799e-06
-4.97831e-06
-8.42184e-06
-1.90439e-05
-2.32639e-05
-1.60947e-05
-8.8748e-06
-8.05287e-06
-5.06923e-06
5.86175e-06
-6.74588e-07
-1.78057e-05
-3.56731e-05
-3.87073e-05
-3.37257e-05
-2.53508e-05
-2.03911e-05
-2.51877e-05
-2.1101e-05
-1.29219e-05
-4.27818e-06
-9.72402e-06
-1.00522e-05
-5.83058e-06
-1.20401e-05
-3.53292e-05
-5.74483e-05
-6.51732e-05
-3.84519e-05
7.85143e-06
4.60339e-05
4.10144e-05
1.2507e-05
-2.821e-05
-3.9927e-05
-3.50399e-05
-3.0936e-05
-3.09593e-05
-2.93251e-05
-2.12639e-05
-1.12426e-05
-5.19288e-06
-7.70754e-06
-1.74593e-05
-2.25753e-05
-1.80119e-05
-1.09437e-05
-1.00334e-05
-6.71395e-06
7.22901e-06
3.77509e-06
-1.77246e-05
-3.69438e-05
-4.00465e-05
-3.5267e-05
-2.60685e-05
-2.0368e-05
-2.54445e-05
-2.50491e-05
-1.49423e-05
5.46279e-07
-5.36039e-06
-1.04344e-05
-7.37729e-06
-1.15976e-05
-3.19997e-05
-5.36415e-05
-6.48671e-05
-4.28668e-05
3.53262e-06
4.4473e-05
4.6143e-05
1.78556e-05
-2.41501e-05
-3.75635e-05
-3.51166e-05
-3.24399e-05
-3.31084e-05
-3.23119e-05
-2.50831e-05
-1.45663e-05
-6.69574e-06
-7.39742e-06
-1.58065e-05
-2.13461e-05
-1.94863e-05
-1.35526e-05
-1.28886e-05
-9.82723e-06
7.27779e-06
8.75647e-06
-1.4714e-05
-3.74629e-05
-4.09537e-05
-3.66491e-05
-2.77232e-05
-2.12702e-05
-2.48164e-05
-2.78126e-05
-1.92204e-05
-2.70642e-06
4.73278e-07
-8.10968e-06
-8.70938e-06
-1.26456e-05
-2.78574e-05
-4.72397e-05
-6.22561e-05
-4.74841e-05
-3.4859e-06
4.11139e-05
4.90977e-05
1.49206e-05
-2.08256e-05
-3.70744e-05
-3.61617e-05
-3.37849e-05
-3.42269e-05
-3.384e-05
-2.76603e-05
-1.74189e-05
-8.35881e-06
-7.68507e-06
-1.49339e-05
-2.04989e-05
-1.94268e-05
-1.57681e-05
-1.58713e-05
-1.35509e-05
5.18919e-06
1.28773e-05
-1.04114e-05
-3.67824e-05
-4.15462e-05
-3.68581e-05
-2.93652e-05
-2.34795e-05
-2.51407e-05
-2.7845e-05
-2.35632e-05
1.56919e-07
5.24125e-06
-4.94336e-06
-1.18236e-05
-1.30834e-05
-2.18763e-05
-3.83957e-05
-5.73857e-05
-5.20182e-05
-1.27493e-05
3.53776e-05
4.96831e-05
1.02526e-05
-1.85332e-05
-3.8828e-05
-3.79342e-05
-3.48491e-05
-3.45625e-05
-3.43869e-05
-2.93699e-05
-1.95266e-05
-9.24753e-06
-7.43905e-06
-1.40501e-05
-2.02726e-05
-2.0137e-05
-1.7529e-05
-1.87621e-05
-1.73072e-05
1.88414e-06
1.53532e-05
-5.67921e-06
-3.52924e-05
-4.24032e-05
-3.70671e-05
-2.94401e-05
-2.60374e-05
-2.62151e-05
-2.81457e-05
-2.65868e-05
-3.28288e-06
7.48209e-06
-2.63101e-06
-1.37618e-05
-1.1972e-05
-1.41054e-05
-2.82345e-05
-5.12057e-05
-5.54687e-05
-2.31615e-05
2.67272e-05
4.87769e-05
1.12667e-05
-1.70278e-05
-4.12833e-05
-3.89005e-05
-3.50297e-05
-3.41898e-05
-3.45289e-05
-3.10157e-05
-2.21104e-05
-9.90026e-06
-6.56138e-06
-1.27588e-05
-1.98558e-05
-2.10657e-05
-1.92633e-05
-2.05987e-05
-2.00473e-05
-1.83664e-06
1.56174e-05
-2.08205e-06
-3.38158e-05
-4.34816e-05
-3.82567e-05
-2.80888e-05
-2.81335e-05
-2.76679e-05
-2.75903e-05
-2.64837e-05
-6.94746e-06
6.31012e-06
-8.24519e-07
-1.43735e-05
-1.10003e-05
-7.31009e-06
-1.84666e-05
-4.42028e-05
-5.7491e-05
-3.27714e-05
1.68516e-05
4.48334e-05
1.04538e-05
-1.9557e-05
-4.21552e-05
-3.80674e-05
-3.48863e-05
-3.36875e-05
-3.4525e-05
-3.26739e-05
-2.36418e-05
-1.07895e-05
-5.53598e-06
-1.1252e-05
-1.93221e-05
-2.18487e-05
-2.07883e-05
-2.20212e-05
-2.12129e-05
-4.93294e-06
1.30957e-05
-1.15444e-06
-3.27108e-05
-4.38929e-05
-3.58476e-05
-2.68287e-05
-2.84265e-05
-2.9181e-05
-2.71351e-05
-2.41887e-05
-8.77151e-06
4.00951e-06
1.33738e-06
-1.40732e-05
-1.18452e-05
-4.59302e-06
-1.18937e-05
-3.65516e-05
-5.44485e-05
-3.8178e-05
7.37139e-06
3.78094e-05
2.82078e-05
-1.83723e-05
-3.66452e-05
-3.61303e-05
-3.47451e-05
-3.28531e-05
-3.49371e-05
-3.52489e-05
-2.73062e-05
-1.12164e-05
-4.57538e-06
-9.61053e-06
-1.88499e-05
-2.27392e-05
-2.22983e-05
-2.32358e-05
-2.30161e-05
-7.48437e-06
8.34435e-06
-1.5499e-06
-2.41568e-05
-4.00267e-05
-3.61914e-05
-2.73525e-05
-2.70209e-05
-2.92379e-05
-2.76309e-05
-2.31732e-05
-1.09462e-05
1.50527e-06
-2.70432e-07
-1.19326e-05
-1.32008e-05
-7.89272e-06
-1.30369e-05
-3.10723e-05
-4.67636e-05
-3.68289e-05
3.67338e-08
2.86998e-05
1.95216e-05
-1.55603e-05
-3.20682e-05
-3.42476e-05
-3.18878e-05
-3.0797e-05
-3.49782e-05
-3.8704e-05
-3.2437e-05
-1.49381e-05
-3.82328e-06
-7.86539e-06
-1.83159e-05
-2.36642e-05
-2.39151e-05
-2.45101e-05
-2.3677e-05
-8.57797e-06
2.47471e-06
-3.29126e-06
-2.45584e-05
-3.62618e-05
-3.68674e-05
-2.88361e-05
-2.75831e-05
-2.81692e-05
-2.715e-05
-1.85711e-05
-8.48261e-06
-1.81781e-07
-1.43283e-06
-1.05516e-05
-1.58041e-05
-1.20591e-05
-1.75661e-05
-2.81052e-05
-4.37406e-05
-3.35209e-05
-5.49958e-06
2.11728e-05
1.659e-05
-1.26208e-05
-2.99396e-05
-3.23868e-05
-2.8721e-05
-2.80976e-05
-3.40446e-05
-4.11067e-05
-3.78617e-05
-1.92819e-05
-2.19614e-06
-6.47346e-06
-1.78136e-05
-2.48026e-05
-2.5327e-05
-2.55264e-05
-2.45629e-05
-1.35806e-05
-1.80395e-06
-3.89392e-06
-2.19704e-05
-3.92969e-05
-3.52595e-05
-3.12504e-05
-2.93077e-05
-2.86693e-05
-2.69357e-05
-1.94245e-05
-7.80208e-06
-5.49531e-07
-1.65813e-06
-1.10617e-05
-1.83374e-05
-8.64261e-06
-1.95531e-05
-2.66881e-05
-3.88161e-05
-3.19374e-05
-1.05139e-05
1.58199e-05
1.54074e-05
-8.54484e-06
-2.8772e-05
-3.23272e-05
-2.77707e-05
-2.55632e-05
-3.09864e-05
-4.06218e-05
-4.13556e-05
-2.39922e-05
-3.51916e-06
-7.26562e-06
-1.5889e-05
-2.5931e-05
-2.72244e-05
-2.65013e-05
-2.52252e-05
-1.75493e-05
-7.36706e-06
-8.59687e-06
-1.92709e-05
-2.3579e-05
-3.23678e-05
-3.20198e-05
-2.99703e-05
-2.94507e-05
-2.79689e-05
-2.08543e-05
-8.88119e-06
-7.71777e-07
-3.47446e-06
-1.2267e-05
-2.06538e-05
-3.35487e-05
-2.16699e-05
-2.58018e-05
-3.65159e-05
-2.87403e-05
-1.17506e-05
1.03109e-05
1.20389e-05
-8.71309e-06
-3.17682e-05
-3.26682e-05
-2.69324e-05
-2.33006e-05
-2.76942e-05
-3.90868e-05
-4.30621e-05
-2.76946e-05
-4.64946e-06
5.18173e-07
-1.20139e-05
-2.50543e-05
-2.90758e-05
-2.72076e-05
-2.60217e-05
-2.16532e-05
-1.42005e-05
-1.29826e-05
-1.7838e-05
-2.26505e-05
-3.06518e-05
-3.25688e-05
-3.00594e-05
-2.98289e-05
-2.99408e-05
-2.19551e-05
-9.90129e-06
-1.70986e-06
-5.28362e-06
-1.39776e-05
-2.30621e-05
-2.74811e-05
-2.07815e-05
-2.33953e-05
-3.33698e-05
-2.52741e-05
-1.17736e-05
3.04537e-06
4.03204e-06
-1.0625e-05
-2.26665e-05
-3.20039e-05
-2.55709e-05
-1.95452e-05
-2.41009e-05
-3.90462e-05
-4.6066e-05
-3.10077e-05
-5.17739e-06
5.96112e-06
-5.06704e-06
-2.16608e-05
-3.03772e-05
-2.82255e-05
-2.74121e-05
-2.6431e-05
-2.13678e-05
-1.42076e-05
-1.33167e-05
-1.97381e-05
-3.10137e-05
-3.45707e-05
-3.0839e-05
-2.97086e-05
-3.05015e-05
-2.49756e-05
-1.14941e-05
-5.08112e-06
-8.77872e-06
-1.68749e-05
-2.32774e-05
-2.21866e-05
-1.82303e-05
-1.89523e-05
-1.85715e-05
-1.95287e-05
-1.13974e-05
-4.68245e-06
-5.2492e-06
-1.27601e-05
-1.96417e-05
-2.51523e-05
-2.52815e-05
-2.00749e-05
-2.49989e-05
-4.21056e-05
-5.18391e-05
-3.56069e-05
-7.11216e-06
9.91762e-06
3.26858e-06
-1.71482e-05
-2.98603e-05
-2.91652e-05
-2.69053e-05
-2.80753e-05
-2.50476e-05
-1.55917e-05
-9.01245e-06
-1.92661e-05
-3.08874e-05
-3.56302e-05
-3.21505e-05
-2.83919e-05
-2.9972e-05
-2.66915e-05
-1.36401e-05
-6.94695e-06
-1.29879e-05
-1.56883e-05
-2.21832e-05
-2.25594e-05
-1.93921e-05
-1.80655e-05
-1.78267e-05
-1.86724e-05
-1.48677e-05
-9.23299e-06
-7.59496e-06
-1.21799e-05
-1.89758e-05
-2.54225e-05
-2.60187e-05
-2.61311e-05
-2.6846e-05
-3.68843e-05
-6.36305e-05
-4.15094e-05
-1.40645e-05
8.86122e-06
8.20075e-06
-9.04286e-06
-2.39943e-05
-2.59118e-05
-2.56956e-05
-2.72602e-05
-2.46563e-05
-1.80293e-05
-1.59125e-05
-2.00213e-05
-2.98118e-05
-3.42615e-05
-3.13979e-05
-2.4619e-05
-2.60189e-05
-2.30728e-05
-1.24543e-05
-7.49096e-06
-1.02678e-05
-1.61552e-05
-2.29525e-05
-2.5294e-05
-2.2649e-05
-1.86506e-05
-1.64576e-05
-1.613e-05
-1.46015e-05
-1.19745e-05
-1.2495e-05
-1.64342e-05
-2.28242e-05
-2.77692e-05
-3.08597e-05
-2.88163e-05
-2.60674e-05
-2.79274e-05
-3.88818e-05
-4.20764e-05
-2.28066e-05
2.51498e-06
9.98782e-06
-2.26688e-06
-2.06268e-05
-2.57325e-05
-2.86645e-05
-3.0577e-05
-2.58672e-05
-1.86058e-05
-1.57577e-05
-2.04623e-05
-3.00488e-05
-3.51309e-05
-3.3109e-05
-2.52842e-05
-2.31933e-05
-1.55885e-05
-9.8554e-06
-9.80958e-06
-1.51903e-05
-1.99538e-05
-2.23975e-05
-2.32972e-05
-2.19227e-05
-1.73442e-05
-1.25283e-05
-1.23333e-05
-1.53287e-05
-1.68434e-05
-1.77917e-05
-1.97316e-05
-2.39811e-05
-2.86012e-05
-3.18684e-05
-2.96436e-05
-2.70737e-05
-2.65847e-05
-3.05706e-05
-3.35961e-05
-2.76019e-05
-6.75772e-06
6.29058e-06
3.47182e-06
-5.37077e-06
-1.83773e-05
-2.67311e-05
-2.75703e-05
-2.39825e-05
-1.64012e-05
-1.43259e-05
-2.28979e-05
-3.19586e-05
-3.47161e-05
-3.15769e-05
-2.27589e-05
-1.94117e-05
-1.61336e-05
-1.47267e-05
-1.43932e-05
-1.67119e-05
-1.80081e-05
-1.73143e-05
-1.79891e-05
-2.02605e-05
-2.01042e-05
-1.67422e-05
-1.33051e-05
-1.35512e-05
-1.42965e-05
-1.68269e-05
-2.06719e-05
-2.65593e-05
-3.04939e-05
-3.13302e-05
-2.81761e-05
-2.54245e-05
-2.46988e-05
-2.68617e-05
-2.80571e-05
-2.12318e-05
-1.16814e-05
-1.51727e-06
-7.32671e-07
-8.11281e-06
-2.02623e-05
-2.29933e-05
-2.5068e-05
-2.28532e-05
-1.80634e-05
-1.83749e-05
-2.50604e-05
-3.14531e-05
-3.4428e-05
-3.14301e-05
-2.29679e-05
-1.51908e-05
-1.19011e-05
-1.18903e-05
-1.7191e-05
-2.01283e-05
-1.9106e-05
-1.5732e-05
-1.47659e-05
-1.71144e-05
-1.87753e-05
-1.56824e-05
-1.68521e-05
-1.69234e-05
-1.89705e-05
-2.06517e-05
-2.18949e-05
-2.3004e-05
-2.58901e-05
-2.79523e-05
-2.87372e-05
-2.79607e-05
-2.66389e-05
-2.77777e-05
-2.54215e-05
-1.90968e-05
-1.33288e-05
-8.48015e-06
-6.93095e-06
-9.89717e-06
-1.63175e-05
-1.76978e-05
-2.03544e-05
-2.17007e-05
-2.13022e-05
-2.2598e-05
-2.4907e-05
-2.75051e-05
-2.74985e-05
-2.60637e-05
-2.44945e-05
-2.03679e-05
-1.73006e-05
-1.81851e-05
-2.12854e-05
-2.14662e-05
-1.80297e-05
-1.19996e-05
-1.03762e-05
-1.15513e-05
-1.37112e-05
-1.66304e-05
-1.82553e-05
-2.43109e-05
-2.57666e-05
-2.47589e-05
-2.23924e-05
-2.20097e-05
-2.33846e-05
-2.53549e-05
-2.565e-05
-2.46051e-05
-2.39719e-05
-2.78613e-05
-2.73602e-05
-2.53394e-05
-1.91158e-05
-1.34082e-05
-1.0921e-05
-1.13149e-05
-1.32128e-05
-4.09876e-06
4.20554e-06
4.38169e-06
-1.38343e-05
-2.74013e-05
-3.01296e-05
-3.30938e-05
-3.62262e-05
-3.48665e-05
-2.00754e-05
-1.199e-05
-1.31686e-05
-1.20295e-05
-7.23947e-06
-1.89467e-06
-3.14989e-06
-1.2396e-05
-2.76948e-05
-4.81385e-05
-5.84104e-05
-4.58389e-05
-1.34128e-05
2.65738e-05
4.83517e-05
3.17267e-05
-4.49264e-06
-2.72646e-05
-3.11205e-05
-3.25302e-05
-3.65552e-05
-3.72703e-05
-2.81983e-05
-1.6175e-05
-1.56712e-06
-1.0234e-05
-3.06517e-05
-3.67106e-05
-1.97006e-05
-7.5156e-06
-7.34803e-06
-4.31185e-06
3.87994e-06
4.48017e-06
-1.34749e-05
-2.67698e-05
-2.97693e-05
-3.2703e-05
-3.6149e-05
-3.52512e-05
-2.01044e-05
-1.17724e-05
-1.25225e-05
-1.08775e-05
-6.55303e-06
-8.51386e-07
-1.66975e-06
-1.0787e-05
-2.63483e-05
-4.73337e-05
-5.83506e-05
-4.65185e-05
-1.41808e-05
2.60453e-05
4.88444e-05
3.22466e-05
-4.05518e-06
-2.72356e-05
-3.15743e-05
-3.304e-05
-3.66083e-05
-3.69336e-05
-2.78458e-05
-1.60845e-05
-1.27479e-06
-1.03109e-05
-3.13749e-05
-3.80088e-05
-2.13383e-05
-8.40897e-06
-7.86313e-06
-4.64189e-06
3.49808e-06
4.80074e-06
-1.31209e-05
-2.66701e-05
-2.99561e-05
-3.22349e-05
-3.58502e-05
-3.54406e-05
-1.96443e-05
-1.12548e-05
-1.22391e-05
-1.04253e-05
-6.09441e-06
-1.7974e-07
-5.34726e-07
-9.20883e-06
-2.46937e-05
-4.60293e-05
-5.73486e-05
-4.59603e-05
-1.35825e-05
2.56939e-05
4.87818e-05
3.19166e-05
-4.3235e-06
-2.76356e-05
-3.17533e-05
-3.24667e-05
-3.5368e-05
-3.5772e-05
-2.74927e-05
-1.60309e-05
-1.65196e-06
-1.03744e-05
-2.89656e-05
-3.50878e-05
-2.07811e-05
-9.77067e-06
-8.90136e-06
-5.21257e-06
3.2926e-06
5.83139e-06
-1.24359e-05
-2.65246e-05
-3.02811e-05
-3.3078e-05
-3.63002e-05
-3.57397e-05
-2.01145e-05
-9.87956e-06
-1.15845e-05
-9.90216e-06
-5.84123e-06
9.11621e-08
1.1016e-08
-8.37798e-06
-2.32802e-05
-4.59705e-05
-5.79747e-05
-4.63333e-05
-1.34727e-05
2.60848e-05
4.94635e-05
3.2035e-05
-4.17116e-06
-2.80531e-05
-3.25372e-05
-3.29106e-05
-3.50624e-05
-3.51396e-05
-2.73626e-05
-1.62475e-05
-4.09031e-06
-1.09118e-05
-2.71284e-05
-3.17427e-05
-1.88146e-05
-1.00404e-05
-1.04446e-05
-5.98565e-06
3.44519e-06
7.99907e-06
-1.12173e-05
-2.61821e-05
-3.04343e-05
-3.39662e-05
-3.72495e-05
-3.7527e-05
-2.03603e-05
-8.15584e-06
-1.02549e-05
-9.22493e-06
-5.83866e-06
-8.48399e-08
1.16065e-07
-7.96442e-06
-2.18583e-05
-4.64285e-05
-5.9621e-05
-4.82846e-05
-1.48995e-05
2.61026e-05
5.03922e-05
3.27352e-05
-2.82077e-06
-2.76431e-05
-3.36667e-05
-3.47721e-05
-3.63121e-05
-3.55905e-05
-2.75704e-05
-1.63283e-05
-5.62588e-06
-1.13842e-05
-2.56024e-05
-3.02336e-05
-1.77998e-05
-9.70237e-06
-1.2192e-05
-8.67049e-06
3.29228e-06
1.16866e-05
-9.47662e-06
-2.61066e-05
-3.08969e-05
-3.48832e-05
-3.77856e-05
-3.80849e-05
-2.1113e-05
-8.77465e-06
-8.7475e-06
-7.98176e-06
-6.28343e-06
-4.7593e-07
-1.32652e-07
-7.40552e-06
-2.16414e-05
-4.61133e-05
-6.08611e-05
-5.05998e-05
-1.65092e-05
2.56121e-05
4.99393e-05
3.36813e-05
-6.25774e-08
-2.54681e-05
-3.39599e-05
-3.7335e-05
-3.9525e-05
-3.8024e-05
-2.88372e-05
-1.65141e-05
-6.16021e-06
-1.08709e-05
-2.42121e-05
-2.86974e-05
-1.74694e-05
-9.79313e-06
-1.36406e-05
-1.2396e-05
4.63867e-06
1.67942e-05
-6.64808e-06
-2.64999e-05
-3.14274e-05
-3.60364e-05
-3.83424e-05
-3.94906e-05
-2.27309e-05
-9.14434e-06
-6.39478e-06
-5.08305e-06
-6.85759e-06
-2.55332e-06
-1.11164e-06
-6.9903e-06
-2.0944e-05
-4.40025e-05
-6.09499e-05
-5.28868e-05
-1.81809e-05
2.4118e-05
4.29545e-05
3.46753e-05
3.69526e-06
-2.1659e-05
-3.31583e-05
-3.97017e-05
-4.32045e-05
-4.15637e-05
-3.15895e-05
-1.78703e-05
-6.6692e-06
-9.64e-06
-2.22355e-05
-2.88689e-05
-1.80014e-05
-1.04978e-05
-1.48309e-05
-1.55235e-05
4.62088e-06
2.0658e-05
-1.96018e-06
-2.69625e-05
-3.12225e-05
-3.75762e-05
-3.87996e-05
-3.95365e-05
-2.59257e-05
-9.77804e-06
-1.78554e-06
-4.89505e-09
-6.83508e-06
-5.32119e-06
-3.2754e-06
-7.58062e-06
-1.98992e-05
-4.10599e-05
-5.9671e-05
-5.47097e-05
-2.09888e-05
2.15183e-05
3.99561e-05
3.59095e-05
7.69148e-06
-1.77092e-05
-3.24078e-05
-4.14803e-05
-4.5989e-05
-4.43492e-05
-3.42253e-05
-1.96286e-05
-7.52069e-06
-8.59696e-06
-1.99717e-05
-2.64019e-05
-1.95919e-05
-1.23795e-05
-1.58687e-05
-1.84432e-05
4.01973e-06
2.48031e-05
2.16494e-06
-2.74761e-05
-3.43006e-05
-3.77239e-05
-3.91755e-05
-3.90663e-05
-2.88501e-05
-1.32411e-05
2.91995e-06
7.15601e-06
-6.05559e-06
-8.9316e-06
-7.23352e-06
-9.2905e-06
-1.82467e-05
-3.69159e-05
-5.65779e-05
-5.55861e-05
-2.47868e-05
1.77038e-05
3.90421e-05
3.68158e-05
1.20345e-05
-1.52135e-05
-3.24155e-05
-4.27631e-05
-4.72276e-05
-4.60026e-05
-3.62041e-05
-2.11794e-05
-7.9441e-06
-7.41999e-06
-1.78759e-05
-2.5112e-05
-2.15688e-05
-1.54669e-05
-1.8948e-05
-1.8785e-05
1.20598e-06
2.88358e-05
6.82538e-06
-2.81997e-05
-3.58966e-05
-3.83969e-05
-3.88609e-05
-3.80668e-05
-3.04611e-05
-1.82826e-05
3.28586e-07
1.6841e-05
-3.77103e-06
-1.27634e-05
-1.29904e-05
-1.12569e-05
-1.59154e-05
-3.17615e-05
-5.17601e-05
-5.50496e-05
-2.90641e-05
1.25452e-05
3.87966e-05
3.63213e-05
1.45248e-05
-1.47213e-05
-3.31312e-05
-4.35663e-05
-4.72961e-05
-4.6673e-05
-3.7828e-05
-2.30387e-05
-8.11716e-06
-5.65508e-06
-1.54044e-05
-2.39948e-05
-2.3503e-05
-1.90561e-05
-2.20671e-05
-2.56446e-05
-3.43859e-06
3.2302e-05
1.17211e-05
-2.44021e-05
-3.76574e-05
-3.91062e-05
-3.79939e-05
-3.71354e-05
-3.21141e-05
-2.1338e-05
-3.63325e-06
1.33484e-05
-4.1985e-07
-1.44264e-05
-1.78322e-05
-1.33985e-05
-1.36785e-05
-2.61016e-05
-4.54558e-05
-5.26156e-05
-3.31231e-05
6.00377e-06
3.5898e-05
3.61475e-05
1.49546e-05
-1.67842e-05
-3.4776e-05
-4.3517e-05
-4.58709e-05
-4.57166e-05
-3.93403e-05
-2.45211e-05
-9.28417e-06
-3.59117e-06
-1.25826e-05
-2.29198e-05
-2.4979e-05
-2.21418e-05
-2.55362e-05
-2.86522e-05
-9.40932e-06
3.33124e-05
1.51913e-05
-2.41586e-05
-3.90004e-05
-3.87407e-05
-3.65272e-05
-3.56103e-05
-3.43456e-05
-2.38279e-05
-6.94579e-06
1.00248e-05
1.83814e-06
-1.29068e-05
-2.39897e-05
-1.70814e-05
-1.26455e-05
-2.01833e-05
-3.78099e-05
-4.88499e-05
-3.64287e-05
-6.93042e-07
3.17877e-05
3.3952e-05
9.06581e-06
-2.02837e-05
-3.49582e-05
-4.12661e-05
-4.29835e-05
-4.42993e-05
-4.15297e-05
-2.93e-05
-1.10351e-05
-1.28869e-06
-9.49559e-06
-2.17958e-05
-2.61709e-05
-2.44353e-05
-2.76292e-05
-2.87421e-05
-4.58502e-06
3.00963e-05
1.54285e-05
-2.69411e-05
-4.17384e-05
-3.94184e-05
-3.47444e-05
-3.15771e-05
-3.55822e-05
-2.66349e-05
-9.44172e-06
6.99761e-06
2.66677e-06
-1.04997e-05
-2.80066e-05
-2.19798e-05
-1.38871e-05
-1.5788e-05
-2.92012e-05
-4.2779e-05
-3.78565e-05
-6.27799e-06
2.75899e-05
3.12511e-05
2.23409e-06
-2.15023e-05
-3.36063e-05
-3.88033e-05
-3.97125e-05
-4.25459e-05
-4.43061e-05
-3.48747e-05
-1.4944e-05
9.93239e-07
-5.60507e-06
-2.04897e-05
-2.73865e-05
-2.65419e-05
-2.83418e-05
-2.68649e-05
-4.0007e-06
2.22727e-05
1.10933e-05
-2.59106e-05
-4.39506e-05
-3.73474e-05
-3.30599e-05
-2.96955e-05
-3.26244e-05
-2.75943e-05
-1.11957e-05
4.23416e-06
5.40031e-06
-4.57963e-06
-2.2033e-05
-2.70934e-05
-1.80646e-05
-1.52538e-05
-2.1616e-05
-3.41098e-05
-3.53188e-05
-1.00703e-05
2.1901e-05
2.61193e-05
1.74239e-06
-2.18154e-05
-3.26743e-05
-3.54371e-05
-3.53248e-05
-4.00925e-05
-4.67188e-05
-4.16361e-05
-1.93408e-05
1.99111e-07
-5.55431e-07
-1.84867e-05
-2.86898e-05
-2.8926e-05
-2.89244e-05
-2.55109e-05
-6.38895e-06
1.39596e-05
3.966e-06
-2.34652e-05
-3.97732e-05
-3.50494e-05
-3.29548e-05
-3.03245e-05
-3.2161e-05
-2.76912e-05
-1.70273e-05
2.48485e-06
7.67697e-06
9.34104e-07
-2.36931e-05
-3.12853e-05
-2.24434e-05
-1.69514e-05
-1.89816e-05
-2.64309e-05
-3.07915e-05
-1.27316e-05
1.65284e-05
2.26534e-05
1.36385e-06
-2.31417e-05
-3.08364e-05
-3.19802e-05
-3.19076e-05
-3.6852e-05
-4.60829e-05
-4.60544e-05
-2.54648e-05
-6.40473e-07
4.92447e-06
-1.58393e-05
-2.89262e-05
-3.10773e-05
-2.96758e-05
-2.50691e-05
-1.03513e-05
4.48901e-06
-7.62231e-07
-2.09608e-05
-3.51539e-05
-3.34854e-05
-3.2945e-05
-3.12058e-05
-3.26836e-05
-3.0627e-05
-1.74677e-05
1.67788e-06
9.11102e-06
5.0659e-06
-2.37532e-05
-3.33878e-05
-2.40145e-05
-1.91873e-05
-1.90058e-05
-2.30546e-05
-2.89597e-05
-1.55223e-05
1.30121e-05
2.15081e-05
1.9063e-06
-1.80454e-05
-3.10515e-05
-3.25036e-05
-3.09663e-05
-3.22197e-05
-4.12642e-05
-4.57992e-05
-3.03758e-05
-2.89757e-06
9.19269e-06
-1.23727e-05
-2.88661e-05
-3.33765e-05
-3.08074e-05
-2.5714e-05
-1.40887e-05
-2.92156e-06
-5.86474e-06
-2.02746e-05
-2.96149e-05
-3.21145e-05
-3.20219e-05
-3.19639e-05
-3.3446e-05
-3.22938e-05
-2.05211e-05
9.46928e-07
9.99943e-06
-5.16542e-06
-2.36277e-05
-3.24624e-05
-2.84288e-05
-2.0782e-05
-1.93408e-05
-1.9411e-05
-2.93983e-05
-1.67187e-05
8.19391e-06
1.82385e-05
1.32087e-06
-2.23367e-05
-3.43749e-05
-3.38249e-05
-3.03986e-05
-2.79197e-05
-3.62805e-05
-4.20288e-05
-3.16315e-05
-5.95215e-06
8.62893e-06
-1.00226e-05
-2.48278e-05
-3.53205e-05
-3.22319e-05
-2.79753e-05
-1.89618e-05
-1.06098e-05
-1.12086e-05
-1.89218e-05
-2.48677e-05
-2.93505e-05
-3.17426e-05
-3.24188e-05
-3.47428e-05
-3.72859e-05
-2.33095e-05
-1.29314e-06
1.11247e-05
-1.61452e-06
-2.07821e-05
-3.13697e-05
-2.93729e-05
-2.40194e-05
-1.98332e-05
-1.81723e-05
-2.41126e-05
-1.63946e-05
8.67189e-07
8.83948e-06
-3.556e-06
-2.12833e-05
-3.42711e-05
-3.21638e-05
-2.64556e-05
-2.6316e-05
-3.66514e-05
-4.06243e-05
-3.05886e-05
-6.88066e-06
9.9998e-06
-1.39565e-06
-9.41863e-06
-3.55545e-05
-3.43e-05
-2.9966e-05
-2.46244e-05
-1.88579e-05
-1.52295e-05
-1.64799e-05
-2.08164e-05
-2.81589e-05
-3.22175e-05
-3.23631e-05
-3.37707e-05
-3.47406e-05
-2.30515e-05
-4.70545e-06
9.83133e-06
1.79992e-06
-1.83452e-05
-3.07967e-05
-3.02844e-05
-2.29345e-05
-1.86613e-05
-1.73309e-05
-2.06042e-05
-1.54541e-05
-6.01542e-06
-1.98375e-06
-9.26792e-06
-1.81803e-05
-2.69354e-05
-2.58607e-05
-2.50661e-05
-3.04796e-05
-4.2681e-05
-4.25779e-05
-3.1546e-05
-7.11962e-06
1.08109e-05
1.31554e-05
-8.68327e-06
-3.21008e-05
-3.45451e-05
-3.01133e-05
-2.70533e-05
-2.28572e-05
-1.74516e-05
-1.45173e-05
-2.00913e-05
-2.82016e-05
-3.33107e-05
-3.25391e-05
-3.09041e-05
-3.11941e-05
-2.16233e-05
-7.93584e-06
4.29985e-06
3.23946e-06
-1.65671e-05
-2.7717e-05
-2.93038e-05
-2.44641e-05
-1.91849e-05
-1.72193e-05
-1.77943e-05
-1.49302e-05
-1.02885e-05
-6.91769e-06
-1.09883e-05
-1.61958e-05
-2.60111e-05
-2.77822e-05
-2.78513e-05
-3.00667e-05
-3.77218e-05
-3.50264e-05
-3.60532e-05
-1.01602e-05
1.25653e-05
1.43095e-05
-3.54929e-06
-2.48453e-05
-3.17511e-05
-2.90533e-05
-2.69826e-05
-2.3685e-05
-1.99215e-05
-1.80909e-05
-2.14174e-05
-2.81418e-05
-3.24785e-05
-3.14292e-05
-2.99092e-05
-2.79975e-05
-2.00507e-05
-9.9625e-06
-7.18888e-07
-1.67197e-06
-1.33121e-05
-2.50988e-05
-2.94235e-05
-2.56077e-05
-1.90946e-05
-1.55249e-05
-1.58753e-05
-1.55695e-05
-1.37427e-05
-1.30629e-05
-1.75982e-05
-2.76568e-05
-2.97314e-05
-3.05021e-05
-2.67587e-05
-2.45685e-05
-2.98163e-05
-4.14016e-05
-4.03658e-05
-1.94186e-05
9.32465e-06
1.77436e-05
2.98273e-06
-2.20117e-05
-2.92457e-05
-2.92013e-05
-3.24078e-05
-2.78094e-05
-2.27383e-05
-1.78352e-05
-2.11946e-05
-2.82358e-05
-3.30896e-05
-3.21115e-05
-2.82868e-05
-2.48528e-05
-1.84682e-05
-1.01656e-05
-5.38379e-06
-9.55261e-06
-1.80384e-05
-2.36455e-05
-2.50071e-05
-2.29114e-05
-1.80069e-05
-1.38697e-05
-1.43862e-05
-1.66643e-05
-1.84801e-05
-1.95872e-05
-2.1944e-05
-2.6975e-05
-2.90699e-05
-2.98244e-05
-2.49147e-05
-2.35586e-05
-2.66435e-05
-3.40596e-05
-3.72272e-05
-2.49606e-05
-1.20954e-06
1.43188e-05
1.03424e-05
3.72921e-07
-2.23398e-05
-2.66132e-05
-3.00965e-05
-2.6957e-05
-1.94814e-05
-1.84043e-05
-2.35715e-05
-3.04521e-05
-3.3365e-05
-3.08642e-05
-2.51809e-05
-2.10956e-05
-1.66642e-05
-1.35537e-05
-1.26111e-05
-1.56677e-05
-1.81416e-05
-1.71466e-05
-1.68887e-05
-1.93348e-05
-2.03376e-05
-1.75205e-05
-1.71903e-05
-1.47203e-05
-1.56412e-05
-1.81584e-05
-2.216e-05
-2.65498e-05
-3.03938e-05
-3.0371e-05
-2.70016e-05
-2.43985e-05
-2.53957e-05
-2.84278e-05
-2.79022e-05
-2.20762e-05
-9.13172e-06
1.77998e-06
2.39501e-06
-7.52539e-06
-1.73591e-05
-2.29532e-05
-2.62621e-05
-2.50099e-05
-2.08318e-05
-2.03738e-05
-2.43935e-05
-2.93515e-05
-3.27382e-05
-3.01746e-05
-2.73998e-05
-2.24941e-05
-1.77556e-05
-1.57328e-05
-1.41879e-05
-1.58243e-05
-1.56994e-05
-1.31104e-05
-1.19259e-05
-1.49751e-05
-1.7875e-05
-1.93361e-05
-1.96955e-05
-1.926e-05
-2.00452e-05
-2.11067e-05
-2.21701e-05
-2.32018e-05
-2.51458e-05
-2.63083e-05
-2.76733e-05
-2.76528e-05
-2.7372e-05
-2.76899e-05
-2.44589e-05
-1.98541e-05
-1.36439e-05
-7.62204e-06
-5.52135e-06
-8.82546e-06
-1.56209e-05
-1.93729e-05
-2.28488e-05
-2.27964e-05
-2.17526e-05
-2.19938e-05
-2.38762e-05
-2.67896e-05
-2.72189e-05
-2.63394e-05
-2.53535e-05
-2.30948e-05
-2.1138e-05
-2.0265e-05
-2.10543e-05
-2.08464e-05
-1.52631e-05
-8.67722e-06
-5.99118e-06
-8.86246e-06
-1.43996e-05
-2.00389e-05
-2.27875e-05
-2.3533e-05
-2.41503e-05
-2.34787e-05
-2.06998e-05
-1.95121e-05
-2.17695e-05
-2.34334e-05
-2.62243e-05
-2.64826e-05
-2.63163e-05
-2.87383e-05
-2.66969e-05
-2.2931e-05
-1.7996e-05
-1.2928e-05
-1.11587e-05
-1.19557e-05
-1.50073e-05
-7.31222e-07
2.22647e-05
6.17337e-06
-2.9611e-05
-4.39352e-05
-3.73705e-05
-2.78456e-05
-2.44085e-05
-2.24501e-05
-2.59196e-05
-2.56481e-05
-2.36328e-05
-1.65619e-05
-1.00033e-05
-2.99601e-06
-2.89465e-06
-7.11193e-06
-1.66768e-05
-3.81341e-05
-6.11034e-05
-5.8551e-05
-2.71971e-05
1.09958e-05
3.72657e-05
3.50771e-05
1.23786e-05
-1.38986e-05
-3.09437e-05
-4.24314e-05
-4.91777e-05
-4.92226e-05
-3.79881e-05
-2.2586e-05
-1.11351e-05
-1.44192e-05
-2.5938e-05
-2.89035e-05
-2.31979e-05
-2.28594e-05
-2.20804e-05
-5.26622e-07
2.21853e-05
6.43939e-06
-2.94434e-05
-4.41289e-05
-3.73496e-05
-2.76045e-05
-2.44179e-05
-2.22868e-05
-2.58316e-05
-2.53519e-05
-2.31179e-05
-1.59585e-05
-8.21319e-06
-2.00619e-06
-1.72349e-06
-5.88181e-06
-1.53593e-05
-3.67402e-05
-6.02593e-05
-5.88181e-05
-2.84179e-05
1.01794e-05
3.62083e-05
3.46509e-05
1.22308e-05
-1.41901e-05
-3.12893e-05
-4.25312e-05
-4.88277e-05
-4.86331e-05
-3.73371e-05
-2.20832e-05
-1.10471e-05
-1.47982e-05
-2.67628e-05
-2.98887e-05
-2.41406e-05
-2.36224e-05
-2.26083e-05
-1.19738e-06
2.23158e-05
6.95799e-06
-2.95114e-05
-4.48153e-05
-3.79027e-05
-2.78936e-05
-2.48257e-05
-2.2108e-05
-2.57923e-05
-2.53927e-05
-2.31717e-05
-1.57475e-05
-7.97819e-06
-1.10339e-06
-2.6035e-07
-3.97657e-06
-1.32938e-05
-3.51758e-05
-6.00964e-05
-5.86322e-05
-2.74979e-05
1.10356e-05
3.41416e-05
3.34641e-05
1.15101e-05
-1.47596e-05
-3.14981e-05
-4.22392e-05
-4.79634e-05
-4.81223e-05
-3.74017e-05
-2.2536e-05
-1.14055e-05
-1.41497e-05
-2.49012e-05
-2.77082e-05
-2.28007e-05
-2.3847e-05
-2.41875e-05
-3.85772e-06
2.34461e-05
8.3642e-06
-2.93021e-05
-4.52885e-05
-3.81529e-05
-2.80092e-05
-2.51847e-05
-2.22058e-05
-2.56735e-05
-2.51827e-05
-2.32419e-05
-1.53083e-05
-7.44301e-06
-4.37646e-07
8.94464e-07
-2.30849e-06
-1.12506e-05
-3.3671e-05
-6.09132e-05
-6.04313e-05
-2.70866e-05
1.18075e-05
3.21862e-05
3.28912e-05
1.14497e-05
-1.48948e-05
-3.16301e-05
-4.21396e-05
-4.73166e-05
-4.77227e-05
-3.75768e-05
-2.32909e-05
-1.24025e-05
-1.4178e-05
-2.34863e-05
-2.53898e-05
-2.06196e-05
-2.36898e-05
-2.65207e-05
-6.15689e-06
2.54516e-05
1.1366e-05
-2.84243e-05
-4.53917e-05
-3.80363e-05
-2.77671e-05
-2.54427e-05
-2.16136e-05
-2.53155e-05
-2.41411e-05
-2.32972e-05
-1.55648e-05
-7.35016e-06
-1.66788e-07
1.5243e-06
-1.08672e-06
-9.2619e-06
-3.16012e-05
-6.16522e-05
-6.34088e-05
-2.761e-05
1.02559e-05
3.00812e-05
3.3006e-05
1.23656e-05
-1.42183e-05
-3.17517e-05
-4.25417e-05
-4.69895e-05
-4.75359e-05
-3.76442e-05
-2.37731e-05
-1.33125e-05
-1.44749e-05
-2.26268e-05
-2.40661e-05
-1.93685e-05
-2.32323e-05
-2.92784e-05
-9.27435e-06
2.62681e-05
1.62537e-05
-2.70182e-05
-4.57317e-05
-3.81066e-05
-2.73912e-05
-2.56757e-05
-2.31476e-05
-2.49899e-05
-2.26009e-05
-2.2226e-05
-1.62255e-05
-8.07254e-06
-1.71853e-07
1.52527e-06
-3.53259e-08
-7.12418e-06
-2.8669e-05
-6.14223e-05
-6.63335e-05
-2.98533e-05
9.36101e-06
2.73903e-05
3.44595e-05
1.41497e-05
-1.22335e-05
-3.15744e-05
-4.36835e-05
-4.80546e-05
-4.79192e-05
-3.78302e-05
-2.40188e-05
-1.36779e-05
-1.43812e-05
-2.20165e-05
-2.44509e-05
-1.89334e-05
-2.30117e-05
-3.22978e-05
-1.37356e-05
2.94324e-05
2.25867e-05
-2.43395e-05
-4.64626e-05
-3.87021e-05
-2.69134e-05
-2.57191e-05
-2.43215e-05
-2.47565e-05
-2.06836e-05
-2.07293e-05
-1.72945e-05
-9.76128e-06
-1.39241e-06
5.18114e-07
5.34386e-07
-4.77014e-06
-2.63061e-05
-6.0682e-05
-6.86192e-05
-3.36665e-05
8.40482e-06
2.83151e-05
3.41987e-05
1.64753e-05
-8.71865e-06
-3.04822e-05
-4.50406e-05
-4.83498e-05
-4.88886e-05
-3.849e-05
-2.45514e-05
-1.38581e-05
-1.37581e-05
-2.13481e-05
-2.46791e-05
-1.95639e-05
-2.38341e-05