/*--------------------------------*- C++ -*----------------------------------*\
| =========                 |                                                 |
| \\      /  F ield         | OpenFOAM: The Open Source CFD Toolbox           |
|  \\    /   O peration     | Version:  5.0                                   |
|   \\  /    A nd           | Web:      www.OpenFOAM.org                      |
|    \\/     M anipulation  |                                                 |
\*---------------------------------------------------------------------------*/
FoamFile
{
    version     2.0;
    format      ascii;
    class       volScalarField;
    location    "50.4676134421789371";
    object      pPrimeMean;
}
// * * * * * * * * * * * * * * * * * * * * * * * * * * * * * * * * * * * * * //

dimensions      [0 2 -2 0 0 0 0];

internalField   nonuniform List<scalar> 
60000
(
0
8.79269e-06
2.07807e-06
-1.43224e-05
-3.26129e-05
-3.8086e-05
-3.53526e-05
-3.26893e-05
-3.09993e-05
-2.95735e-05
-2.49855e-05
-2.2358e-05
-2.3565e-05
-2.67748e-05
-2.82279e-05
-3.23916e-05
-4.30717e-05
-6.70702e-05
-7.71975e-05
-6.63638e-05
-3.7949e-05
-5.55146e-06
1.55629e-05
-1.81975e-06
-4.4109e-05
-8.64501e-05
-9.21809e-05
-6.70032e-05
-4.1584e-05
-3.11653e-05
-2.79307e-05
-1.91039e-05
-5.91553e-06
6.14812e-06
4.65909e-06
-1.02495e-05
-2.27607e-05
-2.09311e-05
-1.49536e-05
-9.64567e-06
-1.24262e-06
7.81359e-06
1.6972e-06
-1.41316e-05
-3.22711e-05
-3.78231e-05
-3.54886e-05
-3.27946e-05
-3.06719e-05
-3.00578e-05
-2.56621e-05
-2.29858e-05
-2.36772e-05
-2.66282e-05
-2.81783e-05
-3.23803e-05
-4.3582e-05
-6.69155e-05
-7.71579e-05
-6.62861e-05
-3.74072e-05
-5.21278e-06
1.62938e-05
-1.1737e-06
-4.24174e-05
-8.4145e-05
-9.00913e-05
-6.58674e-05
-4.10529e-05
-3.07907e-05
-2.76335e-05
-1.93527e-05
-7.00806e-06
4.23177e-06
2.8439e-06
-1.17467e-05
-2.25113e-05
-2.09913e-05
-1.56119e-05
-1.06352e-05
-3.17829e-06
6.32455e-06
8.871e-07
-1.396e-05
-3.16571e-05
-3.68719e-05
-3.55996e-05
-3.28502e-05
-3.07826e-05
-3.0808e-05
-2.67176e-05
-2.41983e-05
-2.40954e-05
-2.65043e-05
-2.80474e-05
-3.22809e-05
-4.29406e-05
-6.59701e-05
-7.64383e-05
-6.57905e-05
-3.60207e-05
-3.5619e-06
1.76524e-05
-1.243e-07
-3.9682e-05
-8.04544e-05
-8.72282e-05
-6.53006e-05
-4.16595e-05
-3.06837e-05
-2.6866e-05
-1.94675e-05
-8.74101e-06
1.0743e-06
1.17814e-06
-1.16405e-05
-2.16575e-05
-2.05831e-05
-1.63368e-05
-1.20996e-05
-4.95166e-06
5.12868e-06
1.0181e-09
-1.4022e-05
-3.12553e-05
-3.68666e-05
-3.59287e-05
-3.28241e-05
-3.05767e-05
-3.10837e-05
-2.7776e-05
-2.5417e-05
-2.46953e-05
-2.68112e-05
-2.80613e-05
-3.19222e-05
-4.26015e-05
-6.45126e-05
-7.54301e-05
-6.56382e-05
-3.49518e-05
-2.12896e-06
1.91601e-05
8.71896e-07
-3.6127e-05
-7.49061e-05
-8.16826e-05
-6.23555e-05
-4.11191e-05
-3.04854e-05
-2.62379e-05
-1.93194e-05
-9.67475e-06
-1.081e-06
-1.394e-06
-1.24378e-05
-2.09798e-05
-2.01868e-05
-1.67583e-05
-1.32581e-05
-6.28734e-06
4.38346e-06
-7.33182e-07
-1.4043e-05
-3.13346e-05
-3.68099e-05
-3.62045e-05
-3.27513e-05
-3.02456e-05
-3.14697e-05
-2.88328e-05
-2.70115e-05
-2.5286e-05
-2.73552e-05
-2.81452e-05
-3.13012e-05
-4.14472e-05
-6.23144e-05
-7.38549e-05
-6.61087e-05
-3.5143e-05
-1.19971e-06
2.09565e-05
1.68284e-06
-3.20251e-05
-6.83582e-05
-7.47062e-05
-5.81985e-05
-4.03036e-05
-3.07759e-05
-2.60499e-05
-1.90764e-05
-9.98861e-06
-2.37979e-06
-3.12951e-06
-1.34289e-05
-2.08586e-05
-1.99675e-05
-1.68219e-05
-1.39684e-05
-7.18846e-06
3.05124e-06
-1.28876e-06
-1.39839e-05
-3.15685e-05
-3.67929e-05
-3.60871e-05
-3.24335e-05
-2.93333e-05
-3.23154e-05
-2.99983e-05
-2.86292e-05
-2.51694e-05
-2.7765e-05
-2.86496e-05
-2.99644e-05
-3.98112e-05
-5.89969e-05
-7.16125e-05
-6.65904e-05
-3.65108e-05
-8.65647e-07
2.35243e-05
2.53813e-06
-2.80891e-05
-6.18246e-05
-6.76795e-05
-5.41331e-05
-3.97721e-05
-3.20615e-05
-2.72779e-05
-1.96512e-05
-1.03213e-05
-3.14461e-06
-4.18255e-06
-1.38257e-05
-2.11097e-05
-2.02959e-05
-1.70726e-05
-1.44783e-05
-7.80892e-06
3.12669e-06
-1.72996e-06
-1.35961e-05
-3.2489e-05
-3.70063e-05
-3.60346e-05
-3.20136e-05
-2.72508e-05
-3.32932e-05
-3.20013e-05
-3.14546e-05
-2.48414e-05
-2.71844e-05
-2.95939e-05
-3.01869e-05
-3.79399e-05
-5.52338e-05
-6.84889e-05
-6.63557e-05
-3.89769e-05
-1.88487e-06
2.38423e-05
4.78754e-06
-2.40245e-05
-5.51194e-05
-6.08892e-05
-5.03767e-05
-3.91342e-05
-3.32608e-05
-2.91705e-05
-2.14359e-05
-1.14031e-05
-3.82339e-06
-4.65216e-06
-1.35314e-05
-2.08971e-05
-2.11823e-05
-1.79168e-05
-1.52696e-05
-8.99353e-06
3.95137e-06
2.50406e-07
-1.51904e-05
-3.35927e-05
-3.76805e-05
-3.64606e-05
-3.20631e-05
-2.77953e-05
-3.35949e-05
-3.46638e-05
-3.0495e-05
-2.25559e-05
-2.46593e-05
-2.98186e-05
-3.08714e-05
-3.64113e-05
-5.10199e-05
-6.41032e-05
-6.51373e-05
-4.16594e-05
-4.79451e-06
2.19952e-05
9.14291e-06
-1.93628e-05
-4.88914e-05
-5.52754e-05
-4.73852e-05
-3.84624e-05
-3.38667e-05
-3.05349e-05
-2.33779e-05
-1.32451e-05
-5.10762e-06
-5.193e-06
-1.30363e-05
-2.02459e-05
-2.18387e-05
-1.91122e-05
-1.66416e-05
-1.12226e-05
4.05759e-06
2.78485e-06
-1.48617e-05
-3.41394e-05
-3.81737e-05
-3.69483e-05
-3.2885e-05
-2.86215e-05
-3.31406e-05
-3.67834e-05
-3.17416e-05
-1.83768e-05
-2.05947e-05
-2.82957e-05
-3.18413e-05
-3.52106e-05
-4.6244e-05
-5.81119e-05
-6.25739e-05
-4.47888e-05
-9.67646e-06
1.94993e-05
1.48415e-05
-1.6698e-05
-4.39428e-05
-5.13325e-05
-4.53079e-05
-3.77266e-05
-3.37356e-05
-3.09155e-05
-2.45405e-05
-1.48223e-05
-6.52324e-06
-5.99365e-06
-1.2989e-05
-1.97295e-05
-2.14531e-05
-1.99891e-05
-1.82935e-05
-1.40022e-05
2.71365e-06
4.97884e-06
-1.32033e-05
-3.37772e-05
-3.86256e-05
-3.72831e-05
-3.3818e-05
-3.00632e-05
-3.29929e-05
-3.74084e-05
-3.37809e-05
-1.77077e-05
-1.7118e-05
-2.60346e-05
-3.21022e-05
-3.36464e-05
-4.02381e-05
-5.06227e-05
-5.87061e-05
-4.81036e-05
-1.62215e-05
1.57548e-05
1.69631e-05
-1.5513e-05
-4.06214e-05
-4.91602e-05
-4.39729e-05
-3.68561e-05
-3.30853e-05
-3.06865e-05
-2.51464e-05
-1.58228e-05
-7.37974e-06
-6.37101e-06
-1.28553e-05
-1.95014e-05
-2.15022e-05
-2.05914e-05
-1.99379e-05
-1.68314e-05
2.26073e-07
6.1578e-06
-1.08158e-05
-3.25047e-05
-3.94198e-05
-3.76304e-05
-3.38535e-05
-3.17308e-05
-3.30344e-05
-3.52476e-05
-3.54238e-05
-1.97783e-05
-1.55988e-05
-2.40119e-05
-3.19808e-05
-3.11255e-05
-3.3133e-05
-4.24727e-05
-5.40301e-05
-5.07491e-05
-2.35874e-05
1.01213e-05
1.78349e-05
-1.11859e-05
-3.90072e-05
-4.7658e-05
-4.23668e-05
-3.54537e-05
-3.20427e-05
-3.0244e-05
-2.58381e-05
-1.69104e-05
-8.03156e-06
-6.21616e-06
-1.2299e-05
-1.91464e-05
-2.17426e-05
-2.12267e-05
-2.13406e-05
-1.90255e-05
-2.78816e-06
5.87841e-06
-8.86889e-06
-3.17185e-05
-4.07452e-05
-3.91521e-05
-3.29717e-05
-3.29173e-05
-3.33787e-05
-3.46015e-05
-3.39788e-05
-2.19089e-05
-1.64927e-05
-2.2365e-05
-3.10909e-05
-2.89367e-05
-2.68663e-05
-3.4734e-05
-4.8743e-05
-5.19949e-05
-3.03258e-05
3.44828e-06
1.61921e-05
-9.24691e-06
-3.64468e-05
-4.5174e-05
-3.99679e-05
-3.3766e-05
-3.1023e-05
-2.98436e-05
-2.66533e-05
-1.75336e-05
-9.1287e-06
-5.78336e-06
-1.14793e-05
-1.87249e-05
-2.19132e-05
-2.17894e-05
-2.22064e-05
-2.04424e-05
-5.60884e-06
3.55031e-06
-1.02453e-05
-3.08974e-05
-3.90476e-05
-3.68343e-05
-3.1986e-05
-3.31362e-05
-3.39275e-05
-3.37862e-05
-3.23647e-05
-2.26109e-05
-1.73551e-05
-2.05552e-05
-2.99294e-05
-2.82291e-05
-2.37902e-05
-2.90979e-05
-4.2759e-05
-5.01821e-05
-3.44843e-05
-3.24194e-06
1.18581e-05
-4.19539e-06
-3.22181e-05
-4.05103e-05
-3.71879e-05
-3.17565e-05
-2.98537e-05
-2.98977e-05
-2.82803e-05
-2.02947e-05
-1.07067e-05
-5.18483e-06
-1.04251e-05
-1.82822e-05
-2.20633e-05
-2.24097e-05
-2.28469e-05
-2.07855e-05
-7.78578e-06
-4.07395e-07
-1.08279e-05
-2.69848e-05
-3.67814e-05
-3.74948e-05
-3.18901e-05
-3.22695e-05
-3.37981e-05
-3.36793e-05
-3.14144e-05
-2.21632e-05
-1.80604e-05
-1.96868e-05
-2.7807e-05
-2.82059e-05
-2.60736e-05
-2.81495e-05
-3.77697e-05
-4.50854e-05
-3.45007e-05
-8.63017e-06
6.38263e-06
-5.01887e-06
-2.75351e-05
-3.61917e-05
-3.47026e-05
-2.99462e-05
-2.8094e-05
-2.98987e-05
-3.0686e-05
-2.37563e-05
-1.15798e-05
-4.44853e-06
-9.01767e-06
-1.78436e-05
-2.2447e-05
-2.31369e-05
-2.34107e-05
-2.13625e-05
-7.52044e-06
-5.22943e-06
-1.21999e-05
-2.9172e-05
-3.50176e-05
-4.1126e-05
-3.30567e-05
-3.22738e-05
-3.27978e-05
-3.30785e-05
-3.02569e-05
-2.14872e-05
-1.84561e-05
-1.97997e-05
-2.60334e-05
-2.97216e-05
-3.05193e-05
-2.97103e-05
-3.47429e-05
-4.26458e-05
-3.25479e-05
-1.28595e-05
2.26938e-06
-5.07288e-06
-2.34293e-05
-3.32698e-05
-3.23418e-05
-2.74592e-05
-2.60356e-05
-2.9228e-05
-3.24125e-05
-2.75308e-05
-1.37148e-05
-3.7474e-06
-7.37068e-06
-1.74902e-05
-2.3018e-05
-2.36916e-05
-2.38589e-05
-2.25796e-05
-1.56312e-05
-9.68703e-06
-1.27243e-05
-2.58866e-05
-3.51253e-05
-3.75997e-05
-3.43872e-05
-3.32833e-05
-3.28339e-05
-3.24423e-05
-2.90103e-05
-2.06603e-05
-1.77986e-05
-1.93093e-05
-2.56936e-05
-3.06295e-05
-2.88177e-05
-2.99195e-05
-3.29367e-05
-3.71763e-05
-3.12064e-05
-1.65129e-05
-3.65884e-07
-4.0301e-06
-2.08876e-05
-3.1583e-05
-3.1581e-05
-2.61948e-05
-2.39231e-05
-2.70585e-05
-3.22019e-05
-3.01745e-05
-1.6586e-05
-3.3468e-06
-5.40732e-06
-1.62368e-05
-2.3823e-05
-2.45554e-05
-2.42923e-05
-2.34158e-05
-1.92681e-05
-1.46894e-05
-1.54453e-05
-2.38127e-05
-2.96056e-05
-3.42104e-05
-3.4434e-05
-3.32836e-05
-3.3235e-05
-3.27497e-05
-2.82163e-05
-2.04827e-05
-1.69606e-05
-1.93199e-05
-2.59268e-05
-3.0519e-05
-3.37328e-05
-3.03553e-05
-3.16825e-05
-3.42656e-05
-3.11061e-05
-1.797e-05
-3.69016e-06
-4.86603e-06
-1.93697e-05
-3.1488e-05
-3.1463e-05
-2.50579e-05
-2.20842e-05
-2.46626e-05
-3.1146e-05
-3.14515e-05
-1.90622e-05
-3.8363e-06
-2.04497e-06
-1.37013e-05
-2.38826e-05
-2.54668e-05
-2.44627e-05
-2.40524e-05
-2.18418e-05
-1.81066e-05
-1.7712e-05
-2.20726e-05
-2.61594e-05
-3.23992e-05
-3.42435e-05
-3.27958e-05
-3.34561e-05
-3.36418e-05
-2.55331e-05
-2.04307e-05
-1.70137e-05
-2.02494e-05
-2.68251e-05
-3.14925e-05
-3.232e-05
-3.02611e-05
-3.00188e-05
-3.65607e-05
-3.15363e-05
-1.86552e-05
-8.61189e-06
-9.21831e-06
-1.93398e-05
-2.67129e-05
-3.19433e-05
-2.34974e-05
-1.89968e-05
-2.20749e-05
-3.12028e-05
-3.31891e-05
-2.11412e-05
-4.07096e-06
7.39322e-07
-9.73653e-06
-2.28194e-05
-2.60426e-05
-2.46656e-05
-2.48603e-05
-2.48367e-05
-2.17527e-05
-1.75977e-05
-1.90334e-05
-2.42552e-05
-3.26381e-05
-3.51141e-05
-3.32832e-05
-3.40451e-05
-3.45682e-05
-2.98376e-05
-2.11532e-05
-1.87768e-05
-2.23006e-05
-2.76648e-05
-3.10861e-05
-2.94456e-05
-2.7055e-05
-2.7232e-05
-3.13864e-05
-2.6526e-05
-1.80496e-05
-1.39733e-05
-1.4601e-05
-1.88591e-05
-2.1844e-05
-2.18579e-05
-2.26109e-05
-1.90982e-05
-2.21301e-05
-3.33389e-05
-3.56661e-05
-2.40039e-05
-4.92304e-06
3.25394e-06
-5.05936e-06
-1.88846e-05
-2.51818e-05
-2.44947e-05
-2.44044e-05
-2.58159e-05
-2.37474e-05
-1.78077e-05
-1.30235e-05
-2.34847e-05
-3.24841e-05
-3.55729e-05
-3.33055e-05
-3.29542e-05
-3.44795e-05
-3.04833e-05
-2.23109e-05
-1.94375e-05
-2.47631e-05
-2.66133e-05
-3.00394e-05
-2.93309e-05
-2.70483e-05
-2.62357e-05
-2.70289e-05
-2.52063e-05
-2.10434e-05
-1.67485e-05
-1.54288e-05
-1.78402e-05
-2.0498e-05
-2.40859e-05
-2.58314e-05
-2.30234e-05
-2.29634e-05
-2.88357e-05
-3.69931e-05
-2.79862e-05
-9.23115e-06
3.1562e-06
-7.67306e-07
-1.29961e-05
-2.0366e-05
-2.08061e-05
-2.41977e-05
-2.49949e-05
-2.35292e-05
-1.99491e-05
-2.08062e-05
-2.45381e-05
-3.15228e-05
-3.45692e-05
-3.30321e-05
-3.25479e-05
-3.09431e-05
-2.81411e-05
-2.16267e-05
-1.93646e-05
-2.2162e-05
-2.63291e-05
-3.04002e-05
-3.11994e-05
-2.87591e-05
-2.57668e-05
-2.42876e-05
-2.26508e-05
-2.08832e-05
-1.87206e-05
-1.85536e-05
-2.08625e-05
-2.55626e-05
-2.66562e-05
-2.61074e-05
-2.48714e-05
-2.2186e-05
-2.31974e-05
-3.02306e-05
-2.98923e-05
-1.65109e-05
-7.72891e-07
1.4256e-06
-7.64636e-06
-1.6419e-05
-2.49945e-05
-2.52521e-05
-2.6913e-05
-2.42244e-05
-2.01357e-05
-1.97788e-05
-2.45813e-05
-3.16391e-05
-3.50779e-05
-3.38882e-05
-2.91144e-05
-2.80122e-05
-2.43051e-05
-2.03268e-05
-2.11278e-05
-2.50925e-05
-2.80865e-05
-2.93693e-05
-2.9631e-05
-2.80141e-05
-2.42623e-05
-2.11153e-05
-1.9715e-05
-2.15616e-05
-2.21288e-05
-2.18471e-05
-2.26495e-05
-2.55797e-05
-2.73199e-05
-2.77659e-05
-2.56729e-05
-2.3137e-05
-2.25678e-05
-2.56032e-05
-2.72951e-05
-1.97061e-05
-7.21353e-06
-3.68333e-07
-3.99953e-06
-1.20094e-05
-2.16487e-05
-2.45621e-05
-2.53553e-05
-2.3101e-05
-1.92035e-05
-1.99297e-05
-2.58037e-05
-3.27633e-05
-3.43338e-05
-3.22264e-05
-2.95255e-05
-2.76119e-05
-2.47506e-05
-2.37137e-05
-2.38169e-05
-2.54776e-05
-2.60218e-05
-2.53609e-05
-2.58277e-05
-2.69651e-05
-2.60288e-05
-2.33652e-05
-2.23008e-05
-2.14303e-05
-2.14095e-05
-2.1346e-05
-2.28188e-05
-2.62938e-05
-2.82744e-05
-2.76997e-05
-2.47314e-05
-2.22919e-05
-2.16119e-05
-2.29625e-05
-2.35097e-05
-2.033e-05
-1.18324e-05
-5.86921e-06
-7.09731e-06
-1.44883e-05
-1.92182e-05
-2.25082e-05
-2.36711e-05
-2.25842e-05
-2.09806e-05
-2.21651e-05
-2.73891e-05
-3.25218e-05
-3.40761e-05
-3.44969e-05
-2.85897e-05
-2.37759e-05
-2.19953e-05
-2.44565e-05
-2.63356e-05
-2.75679e-05
-2.61594e-05
-2.3573e-05
-2.31125e-05
-2.45577e-05
-2.50595e-05
-2.49206e-05
-2.42832e-05
-2.43252e-05
-2.40805e-05
-2.39024e-05
-2.41466e-05
-2.36981e-05
-2.50487e-05
-2.61315e-05
-2.64474e-05
-2.43518e-05
-2.27887e-05
-2.23862e-05
-2.15382e-05
-1.78523e-05
-1.37674e-05
-1.09741e-05
-1.10537e-05
-1.3769e-05
-1.80005e-05
-1.86572e-05
-2.07393e-05
-2.25524e-05
-2.31479e-05
-2.51132e-05
-2.76834e-05
-2.95522e-05
-2.97782e-05
-2.94619e-05
-2.80369e-05
-2.56889e-05
-2.4937e-05
-2.64716e-05
-2.83314e-05
-2.80883e-05
-2.46186e-05
-2.04807e-05
-1.96292e-05
-2.04475e-05
-2.20348e-05
-2.46805e-05
-2.85682e-05
-2.851e-05
-2.80452e-05
-2.62684e-05
-2.42854e-05
-2.37447e-05
-2.38659e-05
-2.44426e-05
-2.36578e-05
-2.23957e-05
-2.11868e-05
-2.15207e-05
-2.39685e-05
-2.30273e-05
-1.79456e-05
-1.43288e-05
-1.3581e-05
-1.44071e-05
-1.65048e-05
-4.70823e-06
8.55608e-06
8.61645e-06
-7.304e-06
-2.28469e-05
-3.0201e-05
-3.51386e-05
-3.95564e-05
-4.00035e-05
-3.40578e-05
-2.9898e-05
-3.18724e-05
-3.41877e-05
-3.49513e-05
-3.69344e-05
-4.43815e-05
-5.60618e-05
-6.99643e-05
-8.06389e-05
-7.74343e-05
-5.72249e-05
-2.42074e-05
5.57372e-06
2.00647e-05
2.24545e-06
-2.53349e-05
-3.73284e-05
-3.32188e-05
-3.16773e-05
-3.81535e-05
-4.36142e-05
-3.72822e-05
-2.12364e-05
-3.9795e-06
-4.01484e-06
-2.24994e-05
-3.43289e-05
-2.59779e-05
-1.77462e-05
-1.35176e-05
-5.02086e-06
8.2178e-06
8.45091e-06
-7.43599e-06
-2.27212e-05
-2.98354e-05
-3.53148e-05
-3.91857e-05
-3.94235e-05
-3.31351e-05
-2.90262e-05
-3.07989e-05
-3.30901e-05
-3.39673e-05
-3.59131e-05
-4.32233e-05
-5.48567e-05
-6.87306e-05
-7.97199e-05
-7.6782e-05
-5.67077e-05
-2.33404e-05
6.22586e-06
2.02415e-05
1.91646e-06
-2.6062e-05
-3.84098e-05
-3.44977e-05
-3.23529e-05
-3.78939e-05
-4.28599e-05
-3.67475e-05
-2.11689e-05
-4.32829e-06
-3.83852e-06
-2.1075e-05
-3.24451e-05
-2.54764e-05
-1.79196e-05
-1.37474e-05
-5.51155e-06
7.81254e-06
8.42839e-06
-7.30821e-06
-2.26192e-05
-2.98071e-05
-3.56557e-05
-3.88913e-05
-3.86052e-05
-3.16592e-05
-2.77094e-05
-2.96064e-05
-3.16061e-05
-3.23618e-05
-3.43326e-05
-4.14634e-05
-5.29785e-05
-6.68256e-05
-7.85976e-05
-7.62184e-05
-5.6153e-05
-2.17743e-05
6.76985e-06
2.0232e-05
1.32508e-06
-2.73217e-05
-4.0305e-05
-3.64027e-05
-3.31354e-05
-3.71294e-05
-4.12654e-05
-3.58078e-05
-2.1768e-05
-6.34149e-06
-5.74759e-06
-1.99106e-05
-2.96115e-05
-2.41459e-05
-1.82123e-05
-1.41641e-05
-5.97623e-06
7.53002e-06
8.58988e-06
-7.25821e-06
-2.26522e-05
-2.9779e-05
-3.56453e-05
-3.87044e-05
-3.82603e-05
-3.08344e-05
-2.59731e-05
-2.84174e-05
-3.04206e-05
-3.08971e-05
-3.257e-05
-3.90599e-05
-5.00041e-05
-6.34363e-05
-7.59695e-05
-7.48937e-05
-5.4779e-05
-2.05039e-05
7.85647e-06
2.06029e-05
1.29916e-06
-2.74508e-05
-4.11498e-05
-3.79205e-05
-3.42214e-05
-3.67226e-05
-3.9531e-05
-3.40504e-05
-2.10437e-05
-7.35106e-06
-6.80539e-06
-1.90682e-05
-2.75126e-05
-2.27645e-05
-1.81579e-05
-1.47952e-05
-6.54614e-06
7.31452e-06
9.00551e-06
-7.34034e-06
-2.29222e-05
-2.96977e-05
-3.55139e-05
-3.85284e-05
-3.87301e-05
-2.99677e-05
-2.43041e-05
-2.71395e-05
-2.94547e-05
-2.964e-05
-3.08009e-05
-3.62118e-05
-4.61459e-05
-5.86384e-05
-7.18702e-05
-7.27314e-05
-5.37637e-05
-1.99453e-05
8.43628e-06
2.11466e-05
1.99548e-06
-2.6136e-05
-4.06275e-05
-3.89146e-05
-3.56723e-05
-3.69146e-05
-3.80106e-05
-3.18778e-05
-1.94389e-05
-7.14478e-06
-7.15532e-06
-1.81523e-05
-2.50498e-05
-2.14808e-05
-1.7633e-05
-1.63862e-05
-8.60615e-06
7.12599e-06
1.02831e-05
-7.25572e-06
-2.34856e-05
-2.97661e-05
-3.55702e-05
-3.85334e-05
-3.95369e-05
-2.94545e-05
-2.35339e-05
-2.55638e-05
-2.84127e-05
-2.88591e-05
-2.95331e-05
-3.38177e-05
-4.25081e-05
-5.4503e-05
-6.75925e-05
-7.06657e-05
-5.33892e-05
-2.04894e-05
8.5786e-06
2.15911e-05
3.14123e-06
-2.35917e-05
-3.87031e-05
-3.92036e-05
-3.75809e-05
-3.85204e-05
-3.80108e-05
-3.06663e-05
-1.81359e-05
-6.62917e-06
-7.04654e-06
-1.74567e-05
-2.38143e-05
-2.06975e-05
-1.73141e-05
-1.69335e-05
-1.24753e-05
6.77888e-06
1.26141e-05
-6.62018e-06
-2.45261e-05
-2.98783e-05
-3.58878e-05
-3.86161e-05
-4.13331e-05
-2.94814e-05
-2.27081e-05
-2.32963e-05
-2.66282e-05
-2.83928e-05
-2.937e-05
-3.21366e-05
-3.92073e-05
-5.03341e-05
-6.33044e-05
-6.81567e-05
-5.33017e-05
-2.15726e-05
8.08356e-06
2.07562e-05
4.52276e-06
-2.00901e-05
-3.54407e-05
-3.85591e-05
-3.92099e-05
-4.04067e-05
-3.89379e-05
-3.07064e-05
-1.77927e-05
-6.23726e-06
-6.46144e-06
-1.65104e-05
-2.33111e-05
-2.0596e-05
-1.72654e-05
-1.6925e-05
-1.50153e-05
5.69514e-06
1.44569e-05
-4.96312e-06
-2.5833e-05
-2.9939e-05
-3.65926e-05
-3.86129e-05
-4.03222e-05
-3.16081e-05
-2.21442e-05
-2.0432e-05
-2.35957e-05
-2.7748e-05
-2.96341e-05
-3.14728e-05
-3.67259e-05
-4.61963e-05
-5.85294e-05
-6.50164e-05
-5.32096e-05
-2.3335e-05
6.61036e-06
1.87909e-05
6.20559e-06
-1.64159e-05
-3.19066e-05
-3.76888e-05
-4.01948e-05
-4.15415e-05
-3.95471e-05
-3.09299e-05
-1.80296e-05
-6.22192e-06
-6.00591e-06
-1.53988e-05
-2.36015e-05
-2.13217e-05
-1.80023e-05
-1.55553e-05
-1.77997e-05
4.35733e-06
1.62487e-05
-3.0636e-06
-2.75362e-05
-3.11963e-05
-3.6695e-05
-3.84334e-05
-3.92634e-05
-3.32114e-05
-2.32639e-05
-1.7358e-05
-1.93074e-05
-2.68158e-05
-3.07144e-05
-3.21917e-05
-3.51118e-05
-4.19537e-05
-5.30863e-05
-6.10405e-05
-5.27889e-05
-2.58723e-05
4.14045e-06
1.62184e-05
8.16219e-06
-1.35645e-05
-2.92346e-05
-3.71175e-05
-4.0593e-05
-4.16198e-05
-3.95337e-05
-3.09685e-05
-1.84631e-05
-6.03183e-06
-5.50653e-06
-1.4404e-05
-2.29291e-05
-2.23274e-05
-1.9565e-05
-1.96456e-05
-1.98791e-05
2.22317e-06
1.80933e-05
-5.82292e-07
-3.00586e-05
-3.28647e-05
-3.64683e-05
-3.77524e-05
-3.82015e-05
-3.39738e-05
-2.55308e-05
-1.79114e-05
-1.45386e-05
-2.50042e-05
-3.22807e-05
-3.33148e-05
-3.38209e-05
-3.75873e-05
-4.72161e-05
-5.62036e-05
-5.17488e-05
-2.87976e-05
5.88393e-07
1.59482e-05
9.99034e-06
-1.16058e-05
-2.77438e-05
-3.68421e-05
-4.04644e-05
-4.08907e-05
-3.90182e-05
-3.10812e-05
-1.96206e-05
-5.56546e-06
-4.59909e-06
-1.31992e-05
-2.16219e-05
-2.32166e-05
-2.15164e-05
-2.29807e-05
-2.32473e-05
-7.54953e-07
1.96953e-05
2.36093e-06
-2.06989e-05
-3.40083e-05
-3.61763e-05
-3.69504e-05
-3.72581e-05
-3.4887e-05
-2.92387e-05
-1.95667e-05
-1.39269e-05
-2.20994e-05
-3.26378e-05
-3.50212e-05
-3.29432e-05
-3.35647e-05
-4.1237e-05
-5.06396e-05
-4.98507e-05
-3.16989e-05
-3.94655e-06
1.39522e-05
1.00641e-05
-1.12853e-05
-2.7912e-05
-3.69558e-05
-3.95741e-05
-3.9195e-05
-3.77111e-05
-3.13813e-05
-1.97357e-05
-5.28348e-06
-3.37967e-06
-1.17121e-05
-2.08628e-05
-2.38568e-05
-2.30906e-05
-2.5199e-05
-2.4392e-05
-3.94025e-06
1.97191e-05
3.72447e-06
-2.45324e-05
-3.45127e-05
-3.43256e-05
-3.5753e-05
-3.5841e-05
-3.5875e-05
-3.07344e-05
-2.09424e-05
-1.41073e-05
-1.94181e-05
-3.10682e-05
-3.72599e-05
-3.34248e-05
-3.05136e-05
-3.52082e-05
-4.44257e-05
-4.73729e-05
-3.42294e-05
-8.68365e-06
1.12691e-05
8.81007e-06
-1.27644e-05
-2.88524e-05
-3.58636e-05
-3.71487e-05
-3.66465e-05
-3.63051e-05
-3.24111e-05
-2.23074e-05
-5.85332e-06
-1.82375e-06
-9.9784e-06
-2.01644e-05
-2.43313e-05
-2.4104e-05
-2.63436e-05
-2.35762e-05
-2.84307e-06
1.68593e-05
2.46373e-06
-2.76813e-05
-3.80958e-05
-3.59315e-05
-3.4451e-05
-3.35569e-05
-3.5957e-05
-3.22693e-05
-2.1878e-05
-1.44409e-05
-2.37267e-05
-2.88475e-05
-3.85695e-05
-3.50636e-05
-2.91475e-05
-3.0314e-05
-3.76755e-05
-4.36678e-05
-3.58322e-05
-1.26641e-05
8.42105e-06
6.74786e-06
-1.16781e-05
-2.81241e-05
-3.39566e-05
-3.46409e-05
-3.39115e-05
-3.48617e-05
-3.41739e-05
-2.50575e-05
-7.08494e-06
3.09673e-07
-7.67549e-06
-1.94125e-05
-2.48875e-05
-2.50261e-05
-2.6408e-05
-2.29195e-05
-4.58624e-06
1.08856e-05
-1.78403e-06
-2.90311e-05
-3.94684e-05
-3.50768e-05
-3.35329e-05
-3.23788e-05
-3.49384e-05
-3.30468e-05
-2.24434e-05
-1.44277e-05
-1.83962e-05
-2.5541e-05
-3.70062e-05
-3.74036e-05
-2.99236e-05
-2.81179e-05
-3.156e-05
-3.84452e-05
-3.4762e-05
-1.56506e-05
4.49592e-06
3.95767e-06
-1.20372e-05
-2.67288e-05
-3.24524e-05
-3.1704e-05
-3.05859e-05
-3.31511e-05
-3.59398e-05
-2.94414e-05
-1.11558e-05
1.95721e-06
-4.47162e-06
-1.82099e-05
-2.56028e-05
-2.61835e-05
-2.63594e-05
-2.24204e-05
-7.72852e-06
3.28098e-06
-7.05234e-06
-2.75039e-05
-3.68323e-05
-3.29413e-05
-3.36412e-05
-3.28647e-05
-3.48185e-05
-3.34822e-05
-2.28931e-05
-1.41231e-05
-1.49624e-05
-2.15175e-05
-3.64817e-05
-3.94341e-05
-3.04736e-05
-2.77347e-05
-2.86494e-05
-3.4606e-05
-3.18802e-05
-1.79319e-05
1.07418e-06
2.37236e-06
-1.19877e-05
-2.5248e-05
-3.03823e-05
-2.89383e-05
-2.79781e-05
-3.08078e-05
-3.57643e-05
-3.28186e-05
-1.59224e-05
1.05157e-06
-6.31891e-07
-1.65273e-05
-2.598e-05
-2.73442e-05
-2.64216e-05
-2.25403e-05
-1.21443e-05
-4.13173e-06
-1.01134e-05
-2.51785e-05
-3.39988e-05
-3.45671e-05
-3.41092e-05
-3.34988e-05
-3.5186e-05
-3.50461e-05
-2.46173e-05
-1.36731e-05
-1.20377e-05
-1.82531e-05
-3.5793e-05
-3.98376e-05
-3.24647e-05
-2.82568e-05
-2.77359e-05
-3.12585e-05
-3.23283e-05
-2.01924e-05
-8.39238e-07
2.31942e-06
-1.15045e-05
-2.5271e-05
-2.99629e-05
-2.89525e-05
-2.70253e-05
-2.74432e-05
-3.25593e-05
-3.33453e-05
-2.00313e-05
-1.37208e-06
3.65283e-06
-1.37012e-05
-2.61336e-05
-2.86268e-05
-2.68416e-05
-2.31893e-05
-1.56791e-05
-9.76695e-06
-1.348e-05
-2.43265e-05
-3.08991e-05
-3.31475e-05
-3.40833e-05
-3.40846e-05
-3.56315e-05
-3.62144e-05
-2.66079e-05
-1.33288e-05
-1.00979e-05
-1.94036e-05
-3.47333e-05
-3.85384e-05
-3.35829e-05
-2.83214e-05
-2.70462e-05
-2.7512e-05
-3.1183e-05
-2.13168e-05
-3.86959e-06
9.13081e-07
-1.14277e-05
-2.60724e-05
-3.15607e-05
-2.94391e-05
-2.69e-05
-2.45536e-05
-2.89355e-05
-3.12146e-05
-2.16821e-05
-3.89623e-06
2.93661e-06
-9.0541e-06
-2.46431e-05
-2.98075e-05
-2.75677e-05
-2.48578e-05
-1.93198e-05
-1.49538e-05
-1.68045e-05
-2.29846e-05
-2.74255e-05
-3.11075e-05
-3.34327e-05
-3.44686e-05
-3.6247e-05
-3.57414e-05
-2.77949e-05
-1.41023e-05
-8.50745e-06
-1.83005e-05
-3.21487e-05
-3.74543e-05
-3.44772e-05
-2.87448e-05
-2.64292e-05
-2.09632e-05
-2.87463e-05
-2.16781e-05
-9.0836e-06
-4.83265e-06
-1.40319e-05
-2.41207e-05
-3.09331e-05
-2.78508e-05
-2.33973e-05
-2.33746e-05
-2.88571e-05
-3.02712e-05
-2.129e-05
-4.75021e-06
4.0762e-06
-5.19975e-06
-1.89256e-05
-2.99436e-05
-2.8768e-05
-2.63114e-05
-2.33081e-05
-2.00618e-05
-1.86261e-05
-2.09884e-05
-2.47102e-05
-3.03528e-05
-3.34773e-05
-3.40209e-05
-3.55014e-05
-3.62671e-05
-2.84671e-05
-1.61094e-05
-9.00053e-06
-1.61129e-05
-2.98734e-05
-3.65973e-05
-3.42268e-05
-2.82685e-05
-2.53502e-05
-2.46087e-05
-2.57723e-05
-2.13267e-05
-1.41347e-05
-1.16789e-05
-1.52525e-05
-1.87609e-05
-2.40226e-05
-2.35633e-05
-2.26336e-05
-2.63599e-05
-3.22232e-05
-3.15645e-05
-2.15749e-05
-4.523e-06
4.49155e-06
1.12613e-06
-1.38447e-05
-2.60014e-05
-2.86709e-05
-2.64285e-05
-2.49452e-05
-2.24402e-05
-1.95565e-05
-1.77804e-05
-2.37842e-05
-3.0384e-05
-3.40213e-05
-3.37861e-05
-3.4124e-05
-3.46639e-05
-2.82848e-05
-1.83e-05
-1.18512e-05
-1.36668e-05
-2.75466e-05
-3.40895e-05
-3.37156e-05
-2.91999e-05
-2.60175e-05
-2.4876e-05
-2.42938e-05
-2.14452e-05
-1.70955e-05
-1.46921e-05
-1.59754e-05
-1.28024e-05
-2.37866e-05
-2.5204e-05
-2.43039e-05
-2.55963e-05
-3.03758e-05
-2.78438e-05
-2.45041e-05
-4.42805e-06
6.35827e-06
3.80676e-06
-8.98178e-06
-2.10516e-05
-2.65516e-05
-2.61801e-05
-2.48215e-05
-2.31256e-05
-2.15516e-05
-2.14927e-05
-2.48764e-05
-3.01865e-05
-3.33017e-05
-3.27747e-05
-3.12114e-05
-3.25277e-05
-2.71705e-05
-1.98179e-05
-1.46561e-05
-1.64291e-05
-2.48155e-05
-3.2242e-05
-3.40866e-05
-3.0512e-05
-2.56287e-05
-2.32175e-05
-2.2696e-05
-2.16277e-05
-1.95379e-05
-1.86954e-05
-2.18884e-05
-3.41885e-05
-2.81302e-05
-2.64907e-05
-2.33492e-05
-2.15075e-05
-2.51972e-05
-3.04249e-05
-2.88076e-05
-1.56563e-05
4.25678e-06
7.00197e-06
-3.97326e-06
-1.51187e-05
-2.52727e-05
-2.83045e-05
-2.8472e-05
-2.58134e-05
-2.39514e-05
-2.14234e-05
-2.48172e-05
-3.02314e-05
-3.36547e-05
-3.33058e-05
-3.21983e-05
-3.03205e-05
-2.5859e-05
-2.01557e-05
-1.79319e-05
-2.16041e-05
-2.72175e-05
-3.04385e-05
-3.08665e-05
-2.8745e-05
-2.47278e-05
-2.17786e-05
-2.14245e-05
-2.25479e-05
-2.29478e-05
-2.29196e-05
-2.44457e-05
-2.97999e-05
-2.7346e-05
-2.56846e-05
-2.26861e-05
-2.10224e-05
-2.30306e-05
-2.72998e-05
-2.81586e-05
-1.93201e-05
-3.05062e-06
5.38997e-06
7.46418e-07
-4.88964e-06
-2.24732e-05
-2.49894e-05
-2.67223e-05
-2.51664e-05
-2.04323e-05
-2.18109e-05
-2.66889e-05
-3.16934e-05
-3.34995e-05
-3.20267e-05
-2.89487e-05
-2.81534e-05
-2.47396e-05
-2.25355e-05
-2.27315e-05
-2.506e-05
-2.62287e-05
-2.52588e-05
-2.51734e-05
-2.65976e-05
-2.6701e-05
-2.444e-05
-2.27688e-05
-2.14589e-05
-2.14314e-05
-2.21811e-05
-2.40654e-05
-2.52965e-05
-2.81536e-05
-2.6962e-05
-2.43602e-05
-2.18481e-05
-2.2241e-05
-2.37535e-05
-2.4825e-05
-1.9415e-05
-9.84834e-06
-3.51238e-06
-5.42345e-06
-1.96218e-05
-1.96777e-05
-2.27767e-05
-2.47165e-05
-2.44661e-05
-2.22655e-05
-2.32008e-05
-2.6779e-05
-3.16149e-05
-3.38288e-05
-3.05025e-05
-3.18745e-05
-2.78814e-05
-2.49955e-05
-2.22535e-05
-2.34857e-05
-2.47625e-05
-2.4156e-05
-2.19522e-05
-2.13901e-05
-2.35817e-05
-2.6096e-05
-2.62531e-05
-2.5602e-05
-2.49219e-05
-2.44407e-05
-2.40322e-05
-2.39004e-05
-2.36135e-05
-2.43828e-05
-2.49937e-05
-2.53677e-05
-2.44063e-05
-2.34179e-05
-2.15206e-05
-2.1443e-05
-1.82884e-05
-1.38161e-05
-1.02427e-05
-1.00936e-05
-1.39936e-05
-1.80164e-05
-1.98032e-05
-2.2321e-05
-2.312e-05
-2.32899e-05
-2.44052e-05
-2.6909e-05
-2.92059e-05
-2.99588e-05
-2.96142e-05
-2.85729e-05
-2.78314e-05
-2.71467e-05
-2.73432e-05
-2.82597e-05
-2.76478e-05
-2.36337e-05
-1.8707e-05
-1.69847e-05
-1.89235e-05
-2.3219e-05
-2.68975e-05
-2.87692e-05
-2.80964e-05
-2.71794e-05
-2.51943e-05
-2.27075e-05
-2.16233e-05
-2.25822e-05
-2.34442e-05
-2.43541e-05
-2.39568e-05
-2.317e-05
-2.38221e-05
-2.46605e-05
-2.0747e-05
-1.6987e-05
-1.42458e-05
-1.37828e-05
-1.45901e-05
-1.72256e-05
-3.36874e-06
2.10956e-05
1.02591e-05
-1.89601e-05
-3.23627e-05
-2.99163e-05
-2.55476e-05
-2.34745e-05
-2.52995e-05
-2.93434e-05
-3.34532e-05
-3.68162e-05
-3.69637e-05
-3.52354e-05
-3.64702e-05
-4.26953e-05
-4.99073e-05
-5.79087e-05
-7.02456e-05
-7.57546e-05
-5.79328e-05
-2.6365e-05
3.51497e-06
1.87385e-05
1.94449e-05
6.76693e-06
-7.59007e-06
-1.82387e-05
-3.05889e-05
-4.31032e-05
-4.88253e-05
-3.98648e-05
-2.21556e-05
-6.95024e-06
-5.76177e-06
-1.72021e-05
-2.62345e-05
-2.86388e-05
-3.19884e-05
-2.60413e-05
-3.54935e-06
2.11151e-05
1.04453e-05
-1.86554e-05
-3.23036e-05
-2.99032e-05
-2.52396e-05
-2.35433e-05
-2.55116e-05
-2.93355e-05
-3.30419e-05
-3.59759e-05
-3.58051e-05
-3.43268e-05
-3.572e-05
-4.16118e-05
-4.86174e-05
-5.65821e-05
-6.90698e-05
-7.49965e-05
-5.76436e-05
-2.69542e-05
2.70833e-06
1.83629e-05
1.82003e-05
5.38533e-06
-8.92843e-06
-1.92109e-05
-3.09082e-05
-4.26317e-05
-4.81801e-05
-3.93446e-05
-2.18949e-05
-6.83612e-06
-5.31985e-06
-1.61646e-05
-2.49158e-05
-2.77221e-05
-3.16007e-05
-2.60572e-05
-4.50172e-06
2.11268e-05
1.06569e-05
-1.83546e-05
-3.21396e-05
-2.9806e-05
-2.50081e-05
-2.37655e-05
-2.5805e-05
-2.91391e-05
-3.23983e-05
-3.50507e-05
-3.49269e-05
-3.31345e-05
-3.41085e-05
-3.9391e-05
-4.59772e-05
-5.40368e-05
-6.7584e-05
-7.52082e-05
-5.83032e-05
-2.73251e-05
3.16186e-06
1.81313e-05
1.62808e-05
3.22774e-06
-1.1054e-05
-2.0655e-05
-3.117e-05
-4.17751e-05
-4.70592e-05
-3.90683e-05
-2.28034e-05
-8.33203e-06
-6.06595e-06
-1.52721e-05
-2.30087e-05
-2.59881e-05
-3.08906e-05
-2.67721e-05
-6.71751e-06
2.16755e-05
1.10002e-05
-1.84315e-05
-3.23183e-05
-2.98799e-05
-2.49226e-05
-2.41361e-05
-2.60215e-05
-2.92022e-05
-3.18752e-05
-3.43397e-05
-3.3885e-05
-3.20524e-05
-3.22027e-05
-3.65523e-05
-4.23123e-05
-4.99448e-05
-6.42933e-05
-7.40481e-05
-5.94827e-05
-2.78728e-05
4.0338e-06
1.63786e-05
1.46e-05
1.3928e-06
-1.32831e-05
-2.26643e-05
-3.21363e-05
-4.11164e-05
-4.55693e-05
-3.77983e-05
-2.25651e-05
-9.07959e-06
-6.72281e-06
-1.48632e-05
-2.17856e-05
-2.44759e-05
-3.01307e-05
-2.81065e-05
-7.57586e-06
2.2477e-05
1.16279e-05
-1.89275e-05
-3.29751e-05
-3.02565e-05
-2.49365e-05
-2.46812e-05
-2.61482e-05
-2.9306e-05
-3.10423e-05
-3.37993e-05
-3.30569e-05
-3.05888e-05
-3.02553e-05
-3.35151e-05
-3.81788e-05
-4.48999e-05
-5.96507e-05
-7.17012e-05
-6.03135e-05
-2.86515e-05
3.09709e-06
1.45782e-05
1.31522e-05
8.65283e-08
-1.52222e-05
-2.49183e-05
-3.35526e-05
-4.05394e-05
-4.39112e-05
-3.5937e-05
-2.15185e-05
-9.14565e-06
-7.08291e-06
-1.45378e-05
-2.07693e-05
-2.29992e-05
-2.91905e-05
-3.00404e-05
-9.29354e-06
2.28216e-05
1.34867e-05
-1.93125e-05
-3.39104e-05
-3.08837e-05
-2.49048e-05
-2.5216e-05
-2.68274e-05
-2.93178e-05
-2.96456e-05
-3.2663e-05
-3.25685e-05
-2.97996e-05
-2.84255e-05
-3.10439e-05
-3.44067e-05
-4.00106e-05
-5.49165e-05
-6.90129e-05
-6.12661e-05
-2.96859e-05
1.61473e-06
1.2689e-05
1.23062e-05
-1.7581e-07
-1.58918e-05
-2.66915e-05
-3.52988e-05
-4.23395e-05
-4.27439e-05
-3.43707e-05
-2.04926e-05
-9.00838e-06
-7.3781e-06
-1.44966e-05
-2.0095e-05
-2.21029e-05
-2.84798e-05
-3.24074e-05
-1.22134e-05
2.37757e-05
1.69425e-05
-1.89443e-05
-3.52021e-05
-3.20585e-05
-2.48464e-05
-2.56282e-05
-2.72349e-05
-2.93462e-05
-2.76978e-05
-3.11817e-05
-3.24589e-05
-2.96611e-05
-2.80007e-05
-2.94077e-05
-3.11261e-05
-3.54111e-05
-4.99207e-05
-6.58736e-05
-6.18367e-05
-3.14355e-05
5.07155e-08
1.16744e-05
1.16684e-05
3.28649e-07
-1.50993e-05
-2.75687e-05
-3.70596e-05
-4.21764e-05
-4.20423e-05
-3.32869e-05
-1.97512e-05
-8.81293e-06