/*--------------------------------*- C++ -*----------------------------------*\
| =========                 |                                                 |
| \\      /  F ield         | OpenFOAM: The Open Source CFD Toolbox           |
|  \\    /   O peration     | Version:  5.0                                   |
|   \\  /    A nd           | Web:      www.OpenFOAM.org                      |
|    \\/     M anipulation  |                                                 |
\*---------------------------------------------------------------------------*/
FoamFile
{
    version     2.0;
    format      ascii;
    class       volScalarField;
    location    "50.4676134421789371";
    object      pPrime2Mean;
}
// * * * * * * * * * * * * * * * * * * * * * * * * * * * * * * * * * * * * * //

dimensions      [0 4 -4 0 0 0 0];

internalField   nonuniform List<scalar> 
60000
(
0
1.31663e-10
2.07796e-10
1.95076e-10
6.02426e-10
9.52406e-10
8.81525e-10
8.00741e-10
8.06962e-10
7.64816e-10
5.48875e-10
3.58326e-10
3.67452e-10
5.39584e-10
8.21306e-10
1.32172e-09
2.33794e-09
4.17191e-09
4.97928e-09
3.50514e-09
1.12847e-09
1.32444e-10
4.32982e-10
6.00503e-10
2.75057e-09
7.53476e-09
8.85501e-09
5.1616e-09
1.82294e-09
6.87419e-10
4.70025e-10
2.31635e-10
3.3377e-11
7.00692e-11
2.48293e-10
2.67476e-10
2.74388e-10
2.89589e-10
2.61512e-10
1.39278e-10
2.14351e-12
1.06255e-10
1.94922e-10
1.93547e-10
5.89329e-10
9.30979e-10
8.85019e-10
8.09372e-10
8.03627e-10
7.89256e-10
5.91818e-10
3.85561e-10
3.70987e-10
5.25028e-10
8.12518e-10
1.34564e-09
2.4026e-09
4.19582e-09
4.9727e-09
3.47786e-09
1.08209e-09
1.16934e-10
4.437e-10
6.20356e-10
2.70229e-09
7.31751e-09
8.63162e-09
5.08343e-09
1.79824e-09
6.64852e-10
4.52013e-10
2.29684e-10
4.65977e-11
4.48676e-11
2.06789e-10
2.69246e-10
2.78417e-10
2.83357e-10
2.78987e-10
1.74639e-10
1.38108e-11
6.09164e-11
1.38283e-10
1.66854e-10
5.67247e-10
8.76898e-10
8.75612e-10
8.01463e-10
8.00522e-10
8.1164e-10
6.44282e-10
4.37504e-10
3.95384e-10
5.23001e-10
8.02701e-10
1.3429e-09
2.36228e-09
4.11542e-09
4.85923e-09
3.39558e-09
9.95473e-10
8.58928e-11
4.37897e-10
5.71074e-10
2.4813e-09
6.80004e-09
8.20501e-09
5.07202e-09
1.92668e-09
7.06883e-10
4.3896e-10
2.36559e-10
6.34495e-11
1.95999e-11
1.3682e-10
2.22828e-10
2.55763e-10
2.67169e-10
2.93851e-10
2.14436e-10
2.72446e-11
3.18709e-11
8.685e-11
1.39684e-10
5.47257e-10
8.55106e-10
8.70479e-10
7.80506e-10
7.75011e-10
7.96274e-10
6.75604e-10
4.82392e-10
4.33276e-10
5.52147e-10
8.14427e-10
1.31917e-09
2.27271e-09
3.87669e-09
4.62218e-09
3.28544e-09
9.26626e-10
7.60309e-11
4.67268e-10
5.34361e-10
2.16152e-09
5.86366e-09
7.09974e-09
4.50774e-09
1.82462e-09
7.08415e-10
4.27904e-10
2.36381e-10
7.13873e-11
1.16899e-11
9.71043e-11
1.90519e-10
2.34784e-10
2.58853e-10
2.91951e-10
2.21844e-10
3.83989e-11
1.63544e-11
5.93403e-11
1.2678e-10
5.35689e-10
8.38484e-10
8.69509e-10
7.59404e-10
7.50266e-10
8.027e-10
7.05169e-10
5.3963e-10
4.77754e-10
5.9496e-10
8.25025e-10
1.2663e-09
2.10043e-09
3.50635e-09
4.26167e-09
3.1964e-09
9.04274e-10
8.36327e-11
5.34795e-10
5.12869e-10
1.80569e-09
4.76155e-09
5.72349e-09
3.6969e-09
1.6036e-09
6.88264e-10
4.17527e-10
2.25582e-10
6.79293e-11
1.15781e-11
7.65639e-11
1.72937e-10
2.29749e-10
2.50419e-10
2.71493e-10
2.13343e-10
4.71522e-11
9.32716e-12
4.56312e-11
1.1889e-10
5.50579e-10
8.27442e-10
8.52734e-10
7.4513e-10
7.05025e-10
8.21758e-10
7.35031e-10
5.80771e-10
5.00444e-10
6.29322e-10
8.38852e-10
1.23864e-09
1.91331e-09
3.08638e-09
3.87782e-09
3.12737e-09
9.55962e-10
8.97223e-11
6.25453e-10
4.99232e-10
1.49616e-09
3.80701e-09
4.55106e-09
3.01938e-09
1.43102e-09
7.07371e-10
4.50957e-10
2.33039e-10
6.62984e-11
1.15391e-11
6.04566e-11
1.52868e-10
2.34183e-10
2.54685e-10
2.5551e-10
2.04817e-10
5.37038e-11
1.07044e-11
2.01419e-11
1.11914e-10
5.87472e-10
8.30145e-10
8.39894e-10
7.23334e-10
6.24272e-10
8.43164e-10
7.92434e-10
6.37103e-10
5.19354e-10
6.3174e-10
8.58192e-10
1.19949e-09
1.72658e-09
2.67041e-09
3.45531e-09
3.01839e-09
1.05315e-09
9.28872e-11
5.63001e-10
5.67765e-10
1.22698e-09
2.97391e-09
3.57371e-09
2.46261e-09
1.28161e-09
7.30002e-10
5.09885e-10
2.72182e-10
7.64258e-11
1.26726e-11
4.67675e-11
1.28863e-10
2.28109e-10
2.74367e-10
2.52275e-10
2.0344e-10
6.52657e-11
1.69275e-11
1.24892e-11
1.24461e-10
6.31151e-10
8.56898e-10
8.48631e-10
7.15351e-10
6.22839e-10
8.36602e-10
8.78755e-10
6.48082e-10
5.00218e-10
5.82313e-10
8.53172e-10
1.18321e-09
1.56815e-09
2.26433e-09
2.97421e-09
2.84516e-09
1.17459e-09
1.01698e-10
5.32696e-10
6.87035e-10
1.00136e-09
2.28692e-09
2.82044e-09
2.03332e-09
1.15392e-09
7.35133e-10
5.56186e-10
3.21886e-10
1.01855e-10
1.87749e-11
3.84028e-11
1.07731e-10
2.12899e-10
2.93543e-10
2.59822e-10
2.15666e-10
8.99922e-11
1.91487e-11
2.23304e-11
1.0867e-10
6.53727e-10
8.75743e-10
8.61558e-10
7.33894e-10
6.2998e-10
8.00908e-10
9.49118e-10
7.13197e-10
4.2204e-10
5.06104e-10
7.94694e-10
1.2026e-09
1.38181e-09
1.86973e-09
2.42852e-09
2.58324e-09
1.32788e-09
1.39099e-10
4.7001e-10
7.02867e-10
7.7767e-10
1.75869e-09
2.28201e-09
1.7205e-09
1.04562e-09
7.14415e-10
5.68609e-10
3.54926e-10
1.28542e-10
2.81361e-11
3.53792e-11
9.78522e-11
2.01516e-10
2.711e-10
2.65138e-10
2.36342e-10
1.28106e-10
1.33312e-11
4.20204e-11
8.07867e-11
6.41e-10
8.9268e-10
8.65508e-10
7.5615e-10
6.58847e-10
7.78534e-10
9.59439e-10
7.97235e-10
4.13482e-10
4.51672e-10
7.16618e-10
1.07914e-09
1.2084e-09
1.46756e-09
1.86061e-09
2.24522e-09
1.50322e-09
2.37566e-10
3.69597e-10
7.14407e-10
6.03412e-10
1.36008e-09
1.93059e-09
1.50116e-09
9.49673e-10
6.7594e-10
5.58437e-10
3.74261e-10
1.48866e-10
3.5032e-11
3.19808e-11
8.94845e-11
1.97965e-10
2.63946e-10
2.67287e-10
2.61302e-10
1.74508e-10
7.86379e-12
5.86145e-11
5.51661e-11
5.99743e-10
9.27992e-10
8.7105e-10
7.41522e-10
6.97193e-10
7.66022e-10
8.81596e-10
8.62141e-10
4.3599e-10
4.25507e-10
6.44461e-10
9.8359e-10
1.0266e-09
1.08925e-09
1.35005e-09
1.88361e-09
1.64993e-09
4.1578e-10
2.45876e-10
6.87557e-10
4.67869e-10
1.0542e-09
1.685e-09
1.31024e-09
8.46414e-10
6.25534e-10
5.40971e-10
3.97102e-10
1.76009e-10
4.19326e-11
2.6732e-11
7.75598e-11
1.90768e-10
2.64457e-10
2.73096e-10
2.83701e-10
2.12809e-10
1.15946e-11
6.0358e-11
4.30861e-11
5.64056e-10
9.89838e-10
9.2798e-10
6.9144e-10
7.2421e-10
7.64115e-10
8.31992e-10
8.22035e-10
4.65696e-10
4.18727e-10
5.83319e-10
8.85584e-10
8.75505e-10
8.10574e-10
9.53891e-10
1.52698e-09
1.72044e-09
6.42307e-10
1.55764e-10
5.87142e-10
3.71296e-10
9.36764e-10
1.44657e-09
1.11357e-09
7.46306e-10
5.79038e-10
5.24684e-10
4.24944e-10
1.94632e-10
5.58335e-11
2.14206e-11
6.47941e-11
1.81629e-10
2.65067e-10
2.79655e-10
2.96924e-10
2.27614e-10
2.52278e-11
4.40436e-11
5.69405e-11
5.13148e-10
9.75172e-10
8.24701e-10
6.42198e-10
7.16937e-10
7.6973e-10
7.82451e-10
7.37722e-10
4.69054e-10
4.07637e-10
5.2532e-10
7.9317e-10
7.80034e-10
6.57701e-10
7.06804e-10
1.1847e-09
1.59266e-09
8.09457e-10
1.25701e-10
4.34161e-10
4.13546e-10
7.62916e-10
1.13353e-09
9.2902e-10
6.46491e-10
5.30474e-10
5.24838e-10
4.8123e-10
2.61206e-10
8.16598e-11
1.69365e-11
5.16163e-11
1.72759e-10
2.69744e-10
2.89594e-10
3.07505e-10
2.5828e-10
4.38344e-11
2.74316e-11
6.57751e-11
4.06325e-10
8.23431e-10
8.5295e-10
6.31052e-10
6.71628e-10
7.50997e-10
7.64291e-10
6.88454e-10
4.4941e-10
3.95856e-10
4.79298e-10
6.84431e-10
7.18106e-10
6.48652e-10
6.37857e-10
9.41623e-10
1.28217e-09
7.84292e-10
1.43449e-10
2.89151e-10
2.96911e-10
5.76251e-10
8.8583e-10
7.81366e-10
5.56448e-10
4.63381e-10
5.20785e-10
5.69922e-10
3.6186e-10
8.96489e-11
1.3037e-11
3.75028e-11
1.6349e-10
2.77599e-10
3.04821e-10
3.20057e-10
2.73075e-10
5.06929e-11
2.99839e-11
7.88034e-11
4.40711e-10
7.15555e-10
9.54355e-10
6.67414e-10
6.64771e-10
7.02104e-10
7.31019e-10
6.51473e-10
4.15868e-10
3.82765e-10
4.39775e-10
5.94968e-10
7.12689e-10
7.3174e-10
6.54569e-10
8.04733e-10
1.12636e-09
6.90745e-10
1.82683e-10
2.02423e-10
2.30925e-10
4.25983e-10
7.26537e-10
6.58363e-10
4.57026e-10
3.90732e-10
4.93367e-10
6.37429e-10
4.88727e-10
1.25537e-10
7.9211e-12
2.48475e-11
1.55102e-10
2.9141e-10
3.18454e-10
3.2942e-10
2.94627e-10
1.2832e-10
5.50344e-11
7.78567e-11
3.59034e-10
7.29807e-10
8.45741e-10
7.15494e-10
6.95753e-10
6.93855e-10
6.98153e-10
6.09703e-10
3.85302e-10
3.55184e-10
3.97331e-10
5.49939e-10
7.00235e-10
6.51788e-10
6.41495e-10
7.21685e-10
8.9996e-10
6.19631e-10
2.33067e-10
1.55267e-10
1.8678e-10
3.26306e-10
6.11249e-10
6.04398e-10
4.09311e-10
3.25518e-10
4.16626e-10
6.27149e-10
5.84455e-10
1.85351e-10
6.509e-12
1.63097e-11
1.2801e-10
3.10652e-10
3.4375e-10
3.39395e-10
3.1014e-10
1.90323e-10
1.07432e-10
1.23876e-10
3.09178e-10
4.86681e-10
7.03194e-10
7.17466e-10
6.88511e-10
6.98335e-10
6.98088e-10
5.63457e-10
3.68851e-10
3.25948e-10
3.64154e-10
5.23594e-10
6.65842e-10
7.9241e-10
6.42869e-10
6.60057e-10
7.58912e-10
6.64657e-10
2.54396e-10
1.27587e-10
1.49645e-10
2.69108e-10
5.98378e-10
5.78074e-10
3.69331e-10
2.73445e-10
3.41872e-10
5.8741e-10
6.33484e-10
2.44343e-10
8.40258e-12
1.59659e-12
8.3666e-11
3.04225e-10
3.71378e-10
3.43309e-10
3.24213e-10
2.55586e-10
1.73433e-10
1.70979e-10
2.71299e-10
3.94548e-10
6.26076e-10
7.07817e-10
6.65551e-10
6.94975e-10
7.22417e-10
5.01495e-10
3.57834e-10
3.17613e-10
3.76265e-10
5.17269e-10
6.75685e-10
7.07245e-10
6.43393e-10
5.83058e-10
7.46827e-10
5.93534e-10
2.5674e-10
1.2778e-10
1.34712e-10
2.50354e-10
4.21057e-10
5.59627e-10
3.21328e-10
1.99285e-10
2.70367e-10
5.99359e-10
7.09467e-10
3.01659e-10
9.54059e-12
7.4243e-12
3.63456e-11
2.62532e-10
3.89702e-10
3.52188e-10
3.46311e-10
3.44156e-10
2.66851e-10
1.77891e-10
2.11993e-10
3.44016e-10
6.27529e-10
7.40474e-10
6.73052e-10
7.00822e-10
7.3548e-10
5.8143e-10
3.63396e-10
3.54014e-10
4.19431e-10
5.50191e-10
6.48753e-10
5.88863e-10
5.09088e-10
4.82363e-10
5.90646e-10
4.28658e-10
2.43263e-10
1.6858e-10
1.70177e-10
2.30567e-10
2.96787e-10
3.19293e-10
2.94274e-10
2.00936e-10
2.80286e-10
7.23713e-10
8.3606e-10
3.90261e-10
1.54506e-11
2.22764e-11
1.34372e-11
1.75376e-10
3.63745e-10
3.55975e-10
3.29311e-10
3.76323e-10
3.27221e-10
1.87116e-10
1.16781e-10
3.26401e-10
6.16331e-10
7.56748e-10
6.86967e-10
6.44541e-10
7.07198e-10
6.00031e-10
3.78663e-10
3.39376e-10
5.28651e-10
5.08877e-10
6.01023e-10
5.71648e-10
4.91803e-10
4.48896e-10
4.56163e-10
3.95878e-10
2.95532e-10
2.02637e-10
1.73077e-10
2.02647e-10
2.62278e-10
3.43173e-10
3.2444e-10
2.99641e-10
3.03077e-10
5.0749e-10
9.94419e-10
5.21752e-10
5.7668e-11
1.8944e-11
1.56864e-11
7.12697e-11
2.31441e-10
2.71166e-10
3.04929e-10
3.53587e-10
3.19902e-10
2.28715e-10
2.39977e-10
3.47879e-10
5.7852e-10
7.08749e-10
6.53478e-10
5.60679e-10
5.77569e-10
5.14628e-10
3.53166e-10
3.20702e-10
3.92186e-10
4.83205e-10
5.99132e-10
6.20925e-10
5.32593e-10
4.319e-10
3.80435e-10
3.33234e-10
2.86764e-10
2.34038e-10
2.18986e-10
2.54321e-10
3.54605e-10
4.09427e-10
4.48517e-10
3.60405e-10
2.82259e-10
3.06698e-10
5.20949e-10
5.53039e-10
1.65918e-10
1.93484e-12
2.09154e-11
2.4013e-11
1.50285e-10
3.19753e-10
3.44891e-10
4.16287e-10
3.38986e-10
2.32862e-10
2.19022e-10
3.46685e-10
5.80763e-10
7.26043e-10
6.85232e-10
4.82373e-10
4.75397e-10
4.00778e-10
3.16889e-10
3.43817e-10
4.40811e-10
5.21091e-10
5.56842e-10
5.59112e-10
5.01948e-10
3.87351e-10
3.01905e-10
2.66802e-10
2.98433e-10
3.07656e-10
2.87243e-10
2.9418e-10
3.6109e-10
4.28663e-10
4.60655e-10
3.81616e-10
3.05158e-10
2.84091e-10
3.54029e-10
3.96031e-10
2.441e-10
2.33744e-11
8.73992e-12
1.2038e-11
8.13147e-11
2.51011e-10
3.34167e-10
3.61009e-10
3.03626e-10
2.13316e-10
2.39208e-10
3.82675e-10
6.23161e-10
7.00668e-10
6.50326e-10
5.4907e-10
4.64834e-10
4.03188e-10
3.8395e-10
3.95225e-10
4.40432e-10
4.54215e-10
4.31716e-10
4.38062e-10
4.63147e-10
4.30509e-10
3.50965e-10
2.95865e-10
2.87592e-10
2.98948e-10
2.72741e-10
3.03912e-10
3.97368e-10
4.57639e-10
4.45448e-10
3.50061e-10
2.77527e-10
2.5482e-10
2.85508e-10
2.91112e-10
2.20638e-10
6.84855e-11
1.37795e-11
2.15511e-11
9.00297e-11
1.91245e-10
2.682e-10
3.09888e-10
2.87282e-10
2.4544e-10
2.78095e-10
4.29362e-10
6.13999e-10
6.80703e-10
6.71824e-10
4.92889e-10
3.67008e-10
3.35169e-10
4.11117e-10
4.52017e-10
4.88918e-10
4.50874e-10
3.81422e-10
3.6459e-10
3.9397e-10
4.05266e-10
4.14225e-10
3.43918e-10
3.53027e-10
3.46364e-10
3.31718e-10
3.28173e-10
3.17216e-10
3.5272e-10
3.81609e-10
3.73759e-10
3.31558e-10
2.87323e-10
2.81172e-10
2.50283e-10
1.64322e-10
9.29356e-11
5.44794e-11
5.23546e-11
8.65053e-11
1.60942e-10
1.7774e-10
2.2591e-10
2.78752e-10
3.01833e-10
3.53739e-10
4.37758e-10
5.10611e-10
5.24381e-10
5.08823e-10
4.83586e-10
4.13867e-10
3.9475e-10
4.46663e-10
5.03151e-10
4.94429e-10
4.0174e-10
3.08534e-10
2.87691e-10
2.97079e-10
3.22076e-10
3.61998e-10
3.61144e-10
4.68255e-10
4.54076e-10
4.01352e-10
3.35655e-10
3.09784e-10
3.15444e-10
3.32349e-10
3.14588e-10
2.73882e-10
2.41584e-10
2.49541e-10
3.06891e-10
2.77935e-10
1.67731e-10
1.01401e-10
8.44111e-11
9.65074e-11
1.23721e-10
1.25855e-11
9.5233e-11
1.87912e-10
1.12905e-10
2.97693e-10
5.18617e-10
8.02915e-10
1.04951e-09
1.19008e-09
9.63364e-10
8.53026e-10
9.3101e-10
1.14026e-09
1.49337e-09
2.1341e-09
3.26104e-09
4.76859e-09
6.09739e-09
6.54668e-09
5.05431e-09
2.45383e-09
5.57312e-10
2.85169e-10
7.75845e-10
5.36606e-10
8.75997e-10
1.26823e-09
8.8613e-10
6.75986e-10
9.11314e-10
1.27928e-09
1.10617e-09
4.23797e-10
1.83462e-11
1.09474e-10
3.91123e-10
6.05884e-10
4.15841e-10
2.86269e-10
1.49437e-10
1.43711e-11
8.96046e-11
1.79618e-10
1.0469e-10
2.91824e-10
5.18518e-10
8.07253e-10
1.02953e-09
1.14336e-09
8.94526e-10
7.94065e-10
8.73938e-10
1.07882e-09
1.44159e-09
2.10682e-09
3.24385e-09
4.72757e-09
6.01036e-09
6.47012e-09
4.98158e-09
2.37373e-09
4.89322e-10
2.52337e-10
7.7936e-10
5.76202e-10
9.52535e-10
1.35968e-09
9.55714e-10
7.04897e-10
8.97318e-10
1.23362e-09
1.08147e-09
4.26839e-10
2.35247e-11
1.1077e-10
4.15824e-10
5.72379e-10
3.67326e-10
2.75139e-10
1.52847e-10
1.77587e-11
8.18613e-11
1.73954e-10
1.01899e-10
2.87641e-10
5.1901e-10
8.19344e-10
1.02334e-09
1.09973e-09
8.01561e-10
7.05243e-10
7.85226e-10
9.62622e-10
1.30015e-09
1.95564e-09
3.07587e-09
4.53959e-09
5.81551e-09
6.41251e-09
5.00713e-09
2.36147e-09
4.36397e-10
2.22573e-10
7.4065e-10
5.77926e-10
1.02665e-09
1.51108e-09
1.0932e-09
7.61093e-10
8.74066e-10
1.14799e-09
1.02155e-09
4.53801e-10
4.89483e-11
7.18837e-11
3.45084e-10
4.83779e-10
3.17512e-10
2.57839e-10
1.57449e-10
2.12235e-11
7.34364e-11
1.62671e-10
9.23271e-11
2.85428e-10
5.15415e-10
8.08764e-10
1.011e-09
1.0502e-09
7.37533e-10
6.22587e-10
7.18648e-10
8.76784e-10
1.16753e-09
1.75107e-09
2.74596e-09
4.04579e-09
5.22276e-09
5.87649e-09
4.74411e-09
2.25181e-09
3.99696e-10
2.15977e-10
7.36142e-10
5.71263e-10
1.01786e-09
1.5491e-09
1.17662e-09
8.17726e-10
8.59237e-10
1.04329e-09
8.93127e-10
4.01282e-10
5.10773e-11
6.57714e-11
2.95341e-10
4.11157e-10
2.88191e-10
2.4206e-10
1.68548e-10
2.78498e-11
6.0162e-11
1.43175e-10
7.26682e-11
2.86427e-10
5.09967e-10
7.89239e-10
9.92538e-10
1.04151e-09
6.84546e-10
5.6083e-10
6.72526e-10
8.1624e-10
1.04856e-09
1.52251e-09
2.32385e-09
3.35809e-09
4.32068e-09
4.98609e-09
4.24056e-09
2.10019e-09
3.77729e-10
2.13595e-10
7.53535e-10
5.6298e-10
9.33785e-10
1.46925e-09
1.19605e-09
8.70647e-10
8.56425e-10
9.36465e-10
7.33865e-10
3.07608e-10
3.71245e-11
6.86515e-11
2.59648e-10
3.35787e-10
2.56329e-10
2.28534e-10
1.9613e-10
4.82296e-11
4.85933e-11
1.37826e-10
5.21864e-11
2.94947e-10
5.10626e-10
7.81124e-10
9.65368e-10
1.04415e-09
6.46581e-10
5.22357e-10
6.27227e-10
7.61099e-10
9.56069e-10
1.33684e-09
1.97457e-09
2.77727e-09
3.57223e-09
4.20523e-09
3.80961e-09
2.0074e-09
3.88284e-10
2.07813e-10
7.5875e-10
5.50418e-10
8.17129e-10
1.32465e-09
1.17813e-09
9.41461e-10
9.16497e-10
9.09365e-10
6.37603e-10
2.41344e-10
2.75012e-11
6.40372e-11
2.29634e-10
3.03479e-10
2.38182e-10
2.17398e-10
2.10898e-10
9.21551e-11
3.41863e-11
1.60157e-10
3.15783e-11
3.15682e-10
5.11904e-10
7.88105e-10
9.50312e-10
1.09848e-09
6.40394e-10
4.86629e-10
5.78845e-10
6.95503e-10
8.83572e-10
1.2044e-09
1.69273e-09
2.29415e-09
2.92821e-09
3.51745e-09
3.40147e-09
1.94663e-09
3.91518e-10
1.93213e-10
6.68524e-10
5.33612e-10
6.84446e-10
1.12896e-09
1.113e-09
1.00075e-09
9.95038e-10
9.36158e-10
6.0669e-10
2.1091e-10
2.30842e-11
5.42702e-11
1.95411e-10
2.94676e-10
2.356e-10
2.09734e-10
2.18514e-10
1.37095e-10
2.12023e-11
1.85486e-10
1.2724e-11
3.41634e-10
5.08541e-10
8.14537e-10
9.38999e-10
1.04481e-09
6.96661e-10
4.58929e-10
4.91002e-10
6.14656e-10
8.16611e-10
1.09828e-09
1.47998e-09
1.90839e-09
2.3818e-09
2.89459e-09
2.99431e-09
1.8975e-09
4.23993e-10
1.68163e-10
5.1469e-10
5.1906e-10
5.57621e-10
9.35611e-10
1.03613e-09
1.03131e-09
1.04331e-09
9.56296e-10
5.97728e-10
2.02393e-10
2.37944e-11
4.58483e-11
1.61498e-10
3.07094e-10
2.52024e-10
2.15516e-10
2.08773e-10
1.92935e-10
1.17053e-11
2.22504e-10
5.43426e-12
3.75677e-10
5.50391e-10
8.13816e-10
9.28349e-10
9.90194e-10
7.4803e-10
4.71352e-10
4.2414e-10
5.35461e-10
7.49874e-10
1.0304e-09
1.33924e-09
1.60714e-09
1.91606e-09
2.32394e-09
2.57384e-09
1.83539e-09
4.89928e-10
1.38779e-10
4.6715e-10
5.0167e-10
5.1121e-10
7.83188e-10
9.71795e-10
1.03539e-09
1.04108e-09
9.51939e-10
5.92044e-10
2.03886e-10
2.36557e-11
3.74148e-11
1.33044e-10
2.81857e-10
2.75463e-10
2.3989e-10
2.69617e-10
2.38702e-10
3.22394e-12
2.69626e-10
1.01739e-11
4.27917e-10
6.15209e-10
8.04483e-10
9.04112e-10
9.32655e-10
7.69789e-10
5.1965e-10
4.08419e-10
4.9865e-10
6.71838e-10
9.98889e-10
1.2189e-09
1.36628e-09
1.52052e-09
1.81805e-09
2.14508e-09
1.73879e-09
5.83759e-10
1.1358e-10
4.53185e-10
4.62204e-10
4.27912e-10
6.75137e-10
9.23189e-10
1.01634e-09
9.99938e-10
9.2605e-10
5.94496e-10
2.23337e-10
2.187e-11
2.77085e-11
1.04396e-10
2.52746e-10
2.98714e-10
2.78017e-10
3.35063e-10
3.28202e-10
2.86431e-12
3.17032e-10
2.9149e-11
2.65731e-10
6.68083e-10
7.96974e-10
8.5102e-10
8.80838e-10
7.97551e-10
6.05778e-10
4.19018e-10
4.40011e-10
5.70892e-10
9.44243e-10
1.16507e-09
1.18077e-09
1.2039e-09
1.39116e-09
1.72485e-09
1.59613e-09
6.90761e-10
1.07072e-10
3.92314e-10
4.45406e-10
3.57577e-10
6.24058e-10
8.97058e-10
9.64383e-10
9.17964e-10
8.60451e-10
6.07079e-10
2.32484e-10
2.28855e-11
1.9434e-11
7.64823e-11
2.32761e-10
3.16233e-10
3.12991e-10
3.85642e-10
3.73226e-10
1.96305e-11
3.21212e-10
4.95748e-11
3.46474e-10
6.94036e-10
7.36262e-10
7.88883e-10
8.09556e-10
8.31363e-10
6.56037e-10
4.31273e-10
4.03231e-10
4.71629e-10
8.38014e-10
1.1575e-09
1.07456e-09
9.71642e-10
1.03883e-09
1.32751e-09
1.42701e-09
7.92149e-10
1.29474e-10
3.18316e-10
3.90517e-10
2.97521e-10
6.12185e-10
8.26857e-10
8.4354e-10
7.99398e-10
7.9258e-10
6.50196e-10
3.07645e-10
2.99259e-11
1.47435e-11
5.1341e-11
2.14254e-10
3.2969e-10
3.37044e-10
4.12747e-10
3.69698e-10
1.00644e-11
2.46168e-10
5.34697e-11
4.21974e-10
7.9232e-10
7.77646e-10
7.2813e-10
7.04846e-10
8.24585e-10
7.06981e-10
4.3723e-10
3.68744e-10
5.34117e-10
7.20917e-10
1.13839e-09
1.04016e-09
8.2801e-10
7.90776e-10
9.71089e-10
1.20209e-09
8.45997e-10
1.70201e-10
2.53386e-10
3.28688e-10
2.99527e-10
5.67739e-10
7.27394e-10
7.2782e-10
6.80307e-10
7.25013e-10
7.23715e-10
4.06798e-10
4.49652e-11
1.75842e-11
2.77866e-11
1.95295e-10
3.45607e-10
3.61231e-10
4.10665e-10
3.28655e-10
1.85345e-11
1.22987e-10
4.08066e-11
4.52811e-10
8.8784e-10
7.21653e-10
6.84942e-10
6.55666e-10
7.76552e-10
7.27175e-10
4.37569e-10
3.38419e-10
4.28777e-10
5.94705e-10
1.01642e-09
1.06041e-09
7.75768e-10
6.63475e-10
7.06773e-10
9.30889e-10
7.83612e-10
2.12994e-10
1.86566e-10
2.52663e-10
2.39277e-10
5.14951e-10
6.51874e-10
6.03673e-10
5.45782e-10
6.47497e-10
7.98511e-10
5.71996e-10
9.76393e-11
3.76987e-11
9.658e-12
1.67017e-10
3.66186e-10
3.9575e-10
4.06964e-10
3.02556e-10
3.96167e-11
5.0058e-11
4.39929e-11
3.99937e-10
7.78009e-10
6.69653e-10
6.85545e-10
6.71494e-10
7.69437e-10
7.33772e-10
4.43015e-10
3.09351e-10
3.61977e-10
4.9072e-10
9.45538e-10
1.09211e-09
7.42789e-10
6.07895e-10
5.89191e-10
7.56594e-10
6.63713e-10
2.51735e-10
1.42251e-10
2.0378e-10
1.97435e-10
4.9345e-10
5.6116e-10
4.95718e-10
4.50391e-10
5.5266e-10
7.83093e-10
7.07304e-10
1.88512e-10
1.11739e-11
5.618e-12
1.31504e-10
3.74341e-10
4.32101e-10
4.08501e-10
2.96521e-10
8.23133e-11
2.83526e-11
6.10226e-11
3.37282e-10
6.6051e-10
7.17187e-10
6.9805e-10
6.92644e-10
7.80381e-10
7.88105e-10
4.69113e-10
2.84966e-10
3.0772e-10
4.01298e-10
8.67287e-10
1.06912e-09
7.60514e-10
5.90406e-10
5.43403e-10
6.27672e-10
6.6045e-10
2.95699e-10
1.18759e-10
1.7851e-10
1.62547e-10
3.33135e-10
5.28564e-10
4.91374e-10
4.18785e-10
4.31558e-10
6.40462e-10
7.16584e-10
2.84356e-10
6.92199e-12
2.19043e-11
8.41315e-11
3.74847e-10
4.7646e-10
4.21418e-10
3.08729e-10
1.31619e-10
5.56532e-11
9.76672e-11
3.19442e-10
5.4068e-10
6.49773e-10
6.92887e-10
7.10595e-10
7.90737e-10
8.28358e-10
5.16461e-10
2.63315e-10
2.67476e-10
3.11611e-10
7.97939e-10
9.69537e-10
7.73753e-10
5.63593e-10
5.09448e-10
5.28806e-10
6.34529e-10
3.16147e-10
1.03152e-10
1.42608e-10
1.42198e-10
3.82034e-10
5.82526e-10
5.08101e-10
4.10721e-10
3.38176e-10
5.0578e-10
6.17793e-10
3.20674e-10
1.32903e-11
1.32855e-11
4.13043e-11
3.17434e-10
5.1918e-10
4.45787e-10
3.53301e-10
2.02715e-10
1.1903e-10
1.51228e-10
2.90124e-10
4.2802e-10
5.67133e-10
6.65673e-10
7.21002e-10
8.06225e-10
8.2034e-10
5.49761e-10
2.56264e-10
2.41246e-10
3.43179e-10
6.94588e-10
9.01025e-10
7.87699e-10
5.4561e-10
4.76542e-10
3.69628e-10
5.05264e-10
3.14254e-10
1.15226e-10
1.03331e-10
1.55989e-10
3.40762e-10
5.58559e-10
4.51496e-10
3.0868e-10
3.05042e-10
5.27899e-10
5.79984e-10
3.0349e-10
1.63757e-11
2.28797e-11
1.05047e-11
1.69034e-10
5.21337e-10
4.89256e-10
3.94985e-10
3.02314e-10
2.22824e-10
1.93754e-10
2.43632e-10
3.49484e-10
5.36729e-10
6.66078e-10
7.01476e-10
7.61011e-10
8.16059e-10
5.46853e-10
2.69379e-10
2.14891e-10
2.85897e-10
6.03653e-10
8.49794e-10
7.56495e-10
5.34818e-10
4.19733e-10
4.08203e-10
4.11318e-10
3.0178e-10
1.62163e-10
1.2777e-10
1.58828e-10
2.33627e-10
3.49166e-10
3.12641e-10
2.84533e-10
3.99269e-10
7.80344e-10
6.31204e-10
3.1527e-10
1.59365e-11
2.70278e-11
3.27362e-11
8.28232e-11
3.84209e-10
4.89424e-10
3.96455e-10
3.4973e-10
2.86281e-10
2.18793e-10
1.90724e-10
3.27392e-10
5.35774e-10
6.8682e-10
6.9691e-10
7.36059e-10
7.38645e-10
5.28241e-10
2.9543e-10
2.22824e-10
2.10682e-10
5.18211e-10
7.37559e-10
7.24983e-10
5.71284e-10
4.43726e-10
4.00141e-10
3.7045e-10
3.02346e-10
2.04629e-10
1.61458e-10
1.67981e-10
1.59406e-10
3.36508e-10
3.52395e-10
3.34227e-10
3.76592e-10
5.67762e-10
4.36526e-10
4.06559e-10
2.56522e-11
4.41941e-11
4.28981e-11
3.23856e-11
2.44949e-10
4.14989e-10
3.81489e-10
3.46854e-10
3.03166e-10
2.63597e-10
2.61301e-10
3.54723e-10
5.28296e-10
6.57056e-10
6.57578e-10
6.87255e-10
6.50017e-10
4.86075e-10
3.15658e-10
2.43369e-10
2.65716e-10
4.35744e-10
6.57055e-10
7.25942e-10
5.88482e-10
4.28015e-10
3.51692e-10
3.28428e-10
3.00718e-10
2.4688e-10
2.19822e-10
2.70782e-10
5.42004e-10
4.45441e-10
4.1541e-10
3.11412e-10
2.58826e-10
3.6187e-10
5.92688e-10
5.35241e-10
1.30335e-10
2.39698e-11
7.31506e-11
1.11905e-11
1.42687e-10
3.65304e-10
4.48674e-10
4.66368e-10
3.81817e-10
3.24866e-10
2.59614e-10
3.51806e-10
5.28924e-10
6.67529e-10
6.6669e-10
6.21023e-10
5.66438e-10
4.42331e-10
3.15466e-10
2.8265e-10
3.52309e-10
4.91108e-10
5.89075e-10
5.99551e-10
5.21619e-10
3.97852e-10
3.14534e-10
2.98685e-10
3.18456e-10
3.23251e-10
3.12136e-10
3.37133e-10
4.54933e-10
4.31304e-10
3.92515e-10
2.8765e-10
2.43348e-10
2.92838e-10
4.3494e-10
4.93547e-10
2.16585e-10
2.98463e-12
4.65596e-11
2.03356e-11
4.28778e-11
2.75389e-10
3.40052e-10
4.02234e-10
3.59341e-10
2.38383e-10
2.73873e-10
4.07116e-10
5.81176e-10
6.63743e-10
6.27094e-10
5.32513e-10
5.05961e-10
4.07191e-10
3.60872e-10
3.68531e-10
4.2634e-10
4.58516e-10
4.27999e-10
4.19606e-10
4.50634e-10
4.46998e-10
3.75047e-10
3.339e-10
2.8926e-10
2.8482e-10
2.90296e-10
3.32071e-10
3.79865e-10
4.54272e-10
4.18275e-10
3.2874e-10
2.61203e-10
2.68978e-10
3.09947e-10
3.04737e-10
2.00485e-10
4.49116e-11
6.29644e-12
1.51645e-11
1.43049e-10
1.86407e-10
2.72297e-10
3.38801e-10
3.30069e-10
2.80922e-10
3.06582e-10
4.11141e-10
5.78425e-10
6.68454e-10
5.8219e-10
5.79423e-10
4.61909e-10
4.0605e-10
3.62928e-10
3.82218e-10
4.12848e-10
3.97372e-10
3.42795e-10
3.25087e-10
3.67906e-10
4.3009e-10
4.23565e-10
3.86049e-10
3.68027e-10
3.53085e-10
3.35082e-10
3.25835e-10
3.16083e-10
3.32474e-10
3.45366e-10
3.50929e-10
3.28584e-10
3.0368e-10
2.72986e-10
2.41717e-10
1.73917e-10
9.43153e-11
4.62602e-11
4.26336e-11
8.49368e-11
1.56327e-10
2.00195e-10
2.66066e-10
2.95566e-10
3.07505e-10
3.36107e-10
4.09364e-10
4.94153e-10
5.25761e-10
5.17089e-10
5.09547e-10
4.73887e-10
4.61677e-10
4.70572e-10
5.02069e-10
4.86225e-10
3.79654e-10
2.73157e-10
2.42545e-10
2.68973e-10
3.47333e-10
4.23494e-10
4.41407e-10
4.47708e-10
4.29346e-10
3.67138e-10
2.96224e-10
2.62214e-10
2.78591e-10
3.00354e-10
3.22366e-10
3.11476e-10
2.91986e-10
3.01993e-10
3.08353e-10
2.28454e-10
1.5199e-10
9.78487e-11
8.63338e-11
1.01807e-10
1.43365e-10
1.38345e-11
3.42415e-10
2.61629e-10
3.28866e-10
6.70671e-10
5.48831e-10
3.58794e-10
3.08072e-10
3.26633e-10
5.01868e-10
7.46076e-10
1.02733e-09
1.24256e-09
1.50266e-09
2.08488e-09
3.04401e-09
3.99953e-09
4.57931e-09
4.98799e-09
4.55878e-09
2.37406e-09
4.34817e-10
1.99647e-11
3.16042e-10
3.41226e-10
4.95517e-11
7.75991e-11
3.06675e-10
6.23652e-10
1.11124e-09
1.49532e-09
1.10303e-09
3.54223e-10
4.09443e-11
1.66819e-10
3.05832e-10
3.61924e-10
4.72141e-10
7.45968e-10
5.53622e-10
1.33201e-11
3.40778e-10
2.64033e-10
3.2673e-10
6.70744e-10
5.44972e-10
3.54622e-10
3.09853e-10
3.29904e-10
5.01617e-10
7.26473e-10
9.87926e-10
1.20133e-09
1.48288e-09
2.08599e-09
3.00951e-09
3.92818e-09
4.50182e-09
4.92062e-09
4.51426e-09
2.36424e-09
4.41218e-10
1.70132e-11
3.00955e-10
3.21829e-10
3.76601e-11
7.51868e-11
3.13031e-10
6.28612e-10
1.08765e-09
1.46266e-09
1.08479e-09
3.50924e-10
4.15429e-11
1.82798e-10
3.38558e-10
3.55921e-10
4.19426e-10
6.99158e-10
5.40755e-10
1.5854e-11
3.33543e-10
2.63678e-10
3.31553e-10
6.77644e-10
5.44461e-10
3.52851e-10
3.15609e-10
3.31839e-10
4.9192e-10
6.85184e-10
9.12853e-10
1.11174e-09
1.38004e-09
1.95667e-09
2.82054e-09
3.68909e-09
4.27216e-09
4.79385e-09
4.5849e-09
2.47916e-09
4.60396e-10
1.98961e-11
2.84803e-10
2.91448e-10
2.79574e-11
8.10944e-11
3.20681e-10
6.26339e-10
1.04585e-09
1.39202e-09
1.06629e-09
3.84236e-10
4.79562e-11
1.39134e-10
2.9006e-10
3.07316e-10
3.61864e-10
6.4429e-10
5.39537e-10
2.6653e-11
3.31239e-10
2.49518e-10
3.25053e-10
6.87959e-10
5.48027e-10
3.54418e-10
3.2626e-10
3.4582e-10
4.95546e-10
6.60701e-10
8.63336e-10
1.02894e-09
1.2639e-09
1.7689e-09
2.50606e-09
3.24312e-09
3.74671e-09
4.29738e-09
4.3417e-09
2.53625e-09
4.83562e-10
2.42515e-11
2.58969e-10
2.78397e-10
3.14218e-11
9.68244e-11
3.40879e-10
6.45925e-10
1.01425e-09
1.29605e-09
9.7593e-10
3.63665e-10
5.68116e-11
1.2136e-10
2.49641e-10
2.6611e-10
3.25751e-10
6.0294e-10
5.50909e-10
3.1665e-11
3.20444e-10
2.17942e-10
2.98528e-10
7.00141e-10
5.57321e-10
3.5717e-10
3.42845e-10
3.58797e-10
5.07064e-10
6.37968e-10
8.35683e-10
9.65938e-10
1.1398e-09
1.5579e-09
2.13096e-09
2.69171e-09
3.0633e-09
3.58502e-09
3.88311e-09
2.51396e-09
5.02819e-10
2.74378e-11
2.35509e-10
2.86076e-10
5.13456e-11
1.23726e-10
3.80819e-10
6.89444e-10
9.892e-10
1.18955e-09
8.51681e-10
3.12443e-10
6.18637e-11
1.19089e-10
2.25614e-10
2.41422e-10
2.86126e-10
5.44874e-10
5.87255e-10
4.73054e-11
2.86671e-10
2.17174e-10
2.67895e-10
7.23331e-10
5.75783e-10
3.57742e-10
3.59184e-10
3.94497e-10
5.16023e-10
5.9723e-10
7.86515e-10
9.16299e-10
1.03872e-09
1.37474e-09
1.81186e-09
2.22174e-09
2.47408e-09
2.95251e-09
3.44782e-09
2.51913e-09
5.28198e-10
3.01361e-11
2.11043e-10
3.24101e-10
8.00931e-11
1.42769e-10
4.22753e-10
7.54625e-10
1.041e-09
1.11673e-09
7.57274e-10
2.72875e-10
6.46184e-11
1.12984e-10
2.06762e-10
2.25431e-10
2.62469e-10
4.97205e-10
6.42006e-10
8.13297e-11
3.3608e-10
2.75898e-10
2.24441e-10
7.62888e-10
6.15736e-10
3.56848e-10
3.71692e-10
4.23002e-10
5.25754e-10
5.41997e-10
7.26441e-10
8.82072e-10
9.59925e-10
1.24713e-09
1.54887e-09
1.82781e-09
1.98921e-09
2.39367e-09
3.0239e-09
2.51245e-09
6.14844e-10
3.67309e-11
2.2536e-10
3.2416e-10
1.11823e-10
1.44486e-10
4.44597e-10
8.25828e-10
1.03363e-09
1.07668e-09
6.9718e-10
2.49722e-10
6.65767e-11
1.02238e-10
1.89548e-10
2.3027e-10
2.57139e-10
4.79116e-10
7.19626e-10
1.61639e-10
3.28455e-10
3.50166e-10
1.58548e-10
8.11468e-10
7.04793e-10
3.57377e-10
3.74245e-10
4.35788e-10
5.14027e-10
4.81993e-10
6.5532e-10
8.59086e-10
9.04549e-10
1.14791e-09
1.34119e-09
1.50682e-09
1.59008e-09
1.93136e-09
2.61804e-09
2.47275e-09
7.27047e-10
4.14818e-11
2.18038e-10
3.12638e-10
1.41417e-10
1.41977e-10
4.46353e-10
8.74262e-10
1.14843e-09
1.03886e-09
6.51647e-10
2.31242e-10
6.60085e-11
8.86122e-11
1.72516e-10
2.48001e-10
2.72263e-10
4.76246e-10
8.27537e-10
2.33932e-10
2.95897e-10
4.33606e-10
8.42434e-11
8.5046e-10
7.27392e-10
3.91034e-10
3.60134e-10
4.17877e-10
5.25153e-10
4.17586e-10
5.74088e-10
8.22133e-10
8.54705e-10
9.60704e-10
1.18263e-09
1.25402e-09
1.2747e-09
1.55503e-09
2.30448e-09
2.38647e-09
8.57141e-10
4.98324e-11
2.0839e-10
2.89706e-10
1.64715e-10
1.44516e-10
4.47564e-10
8.92641e-10
1.09621e-09
1.00063e-09
6.16692e-10
2.08478e-10
5.5092e-11
6.61621e-11
1.4999e-10
2.58153e-10
3.01309e-10
4.92407e-10
8.48465e-10
3.65734e-10
2.67829e-10
5.38128e-10
3.39735e-11
8.9141e-10
7.81621e-10
4.65359e-10
3.55322e-10
4.03991e-10
5.34899e-10
4.53905e-10
4.60287e-10
7.44477e-10
9.31952e-10
9.63505e-10
1.08113e-09
1.06619e-09
1.03734e-09
1.25747e-09
1.98714e-09
2.25723e-09
9.92153e-10
7.09258e-11
1.95313e-10
2.79606e-10
1.75051e-10
1.54611e-10
4.57031e-10
8.87254e-10
9.9278e-10
9.56328e-10
6.01722e-10
1.9596e-10
4.61145e-11
4.12275e-11
1.15284e-10
2.55706e-10
3.43485e-10
5.1669e-10
8.76437e-10
3.90056e-10
2.51076e-10
6.06531e-10
1.63649e-11
9.51067e-10
8.40794e-10
5.38656e-10
4.12198e-10
4.1219e-10
5.36352e-10
4.93816e-10
4.11327e-10
5.84398e-10
8.02015e-10
9.86438e-10
1.043e-09
9.37133e-10
8.66891e-10
1.01983e-09
1.65072e-09
2.0659e-09
1.115e-09
1.24504e-10
1.7934e-10
2.66845e-10
1.66231e-10
1.81834e-10
4.78275e-10
8.08693e-10
9.30403e-10
8.87875e-10
6.16311e-10
2.35916e-10
4.6063e-11
2.47546e-11
7.87561e-11
2.5867e-10
3.89429e-10
5.38607e-10
8.79891e-10
4.38039e-10
2.37957e-10
6.54434e-10
2.23963e-11
1.02463e-09
9.03087e-10
6.12651e-10
4.68889e-10
4.56688e-10
5.1885e-10
5.24382e-10