/*--------------------------------*- C++ -*----------------------------------*\
| =========                 |                                                 |
| \\      /  F ield         | OpenFOAM: The Open Source CFD Toolbox           |
|  \\    /   O peration     | Version:  5.0                                   |
|   \\  /    A nd           | Web:      www.OpenFOAM.org                      |
|    \\/     M anipulation  |                                                 |
\*---------------------------------------------------------------------------*/
FoamFile
{
    version     2.0;
    format      ascii;
    class       volScalarField;
    location    "50.4676134421789371";
    object      pressDiffMean;
}
// * * * * * * * * * * * * * * * * * * * * * * * * * * * * * * * * * * * * * //

dimensions      [0 2 -3 0 0 0 0];

internalField   nonuniform List<scalar> 
60000
(
1.86268e-08
3.96222e-08
7.38568e-08
6.73744e-08
1.58798e-08
-1.06709e-08
2.30929e-09
1.6556e-08
5.96036e-09
1.49037e-10
3.83786e-09
-1.22623e-08
-1.09098e-08
-4.87681e-09
2.67907e-10
8.43916e-09
3.15773e-08
5.25048e-08
1.17901e-07
2.83597e-07
4.42407e-07
3.85019e-07
2.85537e-08
-3.19446e-07
-4.88403e-07
-2.55186e-07
3.06446e-07
4.07673e-07
1.13687e-07
-3.89732e-10
4.71088e-08
1.19465e-07
1.34064e-07
3.49096e-08
3.63178e-09
7.99917e-08
2.30438e-08
2.34988e-09
1.60036e-08
1.79349e-08
6.17726e-08
3.60036e-08
5.91662e-08
8.71083e-08
3.01118e-08
-2.37729e-08
7.12355e-09
1.87604e-08
-2.70649e-08
-1.59303e-08
2.55248e-08
-2.33493e-08
-1.57157e-08
1.1064e-08
1.94881e-08
1.25881e-08
-1.86915e-08
-1.4178e-08
1.72926e-07
4.23584e-07
5.1311e-07
4.02737e-07
6.34008e-08
-5.08333e-07
-1.10031e-06
-8.26502e-07
4.06351e-07
9.13799e-07
4.26174e-07
6.70464e-08
9.07951e-08
2.15606e-07
2.68535e-07
8.45345e-08
-9.53311e-08
3.95439e-08
4.34023e-08
-3.02167e-09
3.98182e-08
6.19487e-08
1.14836e-07
5.76499e-08
-4.94589e-09
7.02022e-09
1.99861e-08
-1.88899e-08
4.59787e-09
2.31789e-08
-2.6014e-08
-9.09244e-09
5.3887e-08
-1.34144e-08
-2.18207e-08
2.93653e-09
1.13271e-08
-9.58919e-09
-6.9645e-08
-5.06231e-08
1.46426e-07
2.94107e-07
2.59684e-07
1.42537e-07
5.83671e-08
-1.8861e-07
-7.22204e-07
-7.1985e-07
9.24766e-08
5.37793e-07
3.14606e-07
7.76496e-08
5.58591e-08
1.13534e-07
1.64049e-07
7.35465e-08
-7.80037e-08
-2.85509e-08
3.31955e-08
-3.51768e-09
3.54583e-08
8.57703e-08
1.06967e-07
7.98799e-08
2.21268e-08
1.80036e-08
3.49597e-08
-1.78356e-09
-3.5278e-09
2.33902e-08
-1.1341e-08
-8.88574e-09
6.91655e-08
-9.71322e-09
-1.56725e-08
8.41497e-09
1.85051e-08
-2.94569e-10
-4.69911e-08
-9.29853e-09
1.35915e-07
9.36498e-08
-4.98578e-08
-1.04328e-07
6.72831e-08
1.25785e-07
-3.26946e-07
-5.31373e-07
-1.28944e-07
1.53081e-07
7.40701e-08
-4.30083e-09
-4.26934e-09
-5.23669e-09
2.50239e-08
1.95937e-08
-1.84315e-08
3.90759e-08
5.59456e-08
-1.62303e-08
4.52592e-09
5.91719e-08
1.06848e-07
1.2786e-07
8.29153e-08
6.28817e-08
6.80174e-08
1.27776e-08
-1.21578e-08
1.93791e-08
1.30524e-08
-4.69459e-09
9.09329e-08
-7.82296e-09
-7.68985e-09
6.06226e-09
2.00243e-08
-5.90834e-10
-6.3693e-08
-3.29795e-08
1.26885e-07
-5.08117e-08
-3.11395e-07
-2.51016e-07
9.52208e-08
2.66605e-07
-1.78681e-07
-4.65384e-07
-1.98957e-07
7.52763e-08
5.13959e-08
-2.52623e-08
-3.56064e-08
-6.21436e-08
-5.6522e-08
-1.55311e-08
2.60442e-08
7.6429e-08
6.78791e-08
-1.63006e-08
-1.70756e-08
2.10881e-08
7.14127e-08
1.59963e-07
1.26636e-07
5.92345e-08
6.37117e-08
1.64574e-08
-1.51648e-08
1.02879e-08
4.0872e-08
2.62509e-09
7.25066e-08
-1.36705e-08
1.73888e-08
2.02043e-09
1.22629e-08
-1.6168e-08
-1.28955e-07
-1.32358e-07
7.71744e-08
-1.33341e-07
-5.91319e-07
-4.31009e-07
9.57462e-08
2.77258e-07
-9.52895e-08
-4.28326e-07
-2.32714e-07
5.43742e-08
8.74541e-08
1.04664e-08
-1.92158e-08
-4.9595e-08
-7.17341e-08
-3.42508e-08
5.55211e-08
1.002e-07
6.39294e-08
-3.59312e-09
-1.74041e-08
-2.00265e-09
8.7371e-09
1.29937e-07
1.65769e-07
3.71169e-08
2.39639e-08
1.05452e-08
-1.04515e-08
-2.33044e-09
8.13669e-08
2.73793e-08
3.59135e-08
2.49864e-09
8.41856e-08
3.27296e-08
1.22051e-09
-2.81181e-08
-1.78578e-07
-2.17177e-07
1.01495e-08
-1.59459e-07
-8.59052e-07
-7.25184e-07
-5.8764e-09
2.60412e-07
-2.30229e-08
-3.88511e-07
-2.22012e-07
4.04829e-08
8.26398e-08
3.82745e-08
2.10556e-08
8.7104e-09
-3.54394e-08
-4.01885e-08
6.21757e-08
1.33734e-07
7.60494e-08
8.17269e-09
-9.8443e-09
-6.96374e-09
-1.83923e-08
4.47043e-08
1.74126e-07
4.63194e-08
-1.53212e-08
5.27885e-10
1.81242e-09
7.27934e-09
7.7085e-08
5.52809e-08
-5.9525e-09
-6.33426e-09
1.70844e-07
9.26446e-08
-1.85829e-08
-3.92621e-08
-1.80269e-07
-2.66063e-07
-5.29052e-08
-1.01098e-07
-9.64938e-07
-1.08401e-06
-1.69493e-07
2.34951e-07
7.35855e-08
-3.35439e-07
-1.64154e-07
4.33182e-08
7.17903e-08
4.98603e-08
5.1027e-08
7.31232e-08
4.37731e-08
-2.07215e-08
3.03907e-08
1.30594e-07
9.8386e-08
1.83369e-08
-5.83375e-09
-7.69444e-09
-1.58195e-08
-3.73541e-08
1.59878e-07
1.10282e-07
-1.6598e-08
-5.8944e-09
1.64589e-08
2.72704e-08
4.67244e-08
5.78843e-08
-7.5821e-09
-1.48323e-07
1.07647e-07
1.04385e-07
-5.58274e-08
-4.97819e-08
-1.56679e-07
-2.9295e-07
-9.36759e-08
1.293e-08
-8.20236e-07
-1.33279e-06
-3.55672e-07
2.44257e-07
2.14114e-07
-2.29209e-07
-8.00555e-08
5.08257e-08
6.7341e-08
5.43199e-08
5.59387e-08
9.45015e-08
1.05172e-07
2.92048e-08
-3.74905e-09
7.98221e-08
8.94418e-08
2.55127e-08
4.11614e-10
6.83221e-09
-1.79409e-08
-9.46718e-08
1.28941e-07
1.49932e-07
-2.57539e-08
-4.64502e-09
2.03909e-08
3.73719e-08
3.07475e-08
2.24183e-08
2.1615e-08
-2.39569e-07
-1.18824e-07
5.87177e-08
-1.01958e-07
-6.11713e-08
-1.22754e-07
-2.95827e-07
-1.09291e-07
9.56655e-08
-4.98853e-07
-1.29695e-06
-5.68471e-07
2.8575e-07
2.25537e-07
-8.16622e-08
-1.29413e-08
5.42313e-08
6.76736e-08
5.3118e-08
4.49611e-08
8.86156e-08
1.22471e-07
7.10836e-08
-3.78886e-09
3.067e-08
6.28216e-08
3.03176e-08
1.19189e-08
1.94321e-08
8.14737e-10
-1.19041e-07
8.43386e-08
1.41346e-07
-1.45854e-08
-2.22314e-09
1.71285e-08
3.16236e-08
3.05542e-08
4.35881e-09
3.19473e-08
-1.41188e-07
-2.66997e-07
2.26312e-09
-7.58867e-08
-4.60195e-08
-6.96459e-08
-2.60008e-07
-1.13308e-07
1.13335e-07
-1.97577e-07
-9.64457e-07
-6.70422e-07
2.38234e-07
2.37491e-07
6.02149e-08
7.21401e-09
5.08717e-08
6.35563e-08
4.44776e-08
2.70695e-08
7.50805e-08
1.36725e-07
1.01429e-07
1.60514e-08
2.04832e-08
4.63833e-08
3.19546e-08
2.2444e-08
3.29181e-08
2.25373e-08
-1.04362e-07
4.99852e-08
1.36532e-07
-2.09375e-08
-7.79282e-09
-6.59945e-09
1.47449e-08
1.36536e-08
7.99948e-09
1.42045e-08
-1.30404e-08
-2.08017e-07
-2.79291e-08
-1.4557e-08
-1.49415e-08
2.04592e-08
-1.65526e-07
-1.22409e-07
8.69139e-08
1.4989e-09
-5.26548e-07
-5.82395e-07
1.81648e-07
1.73119e-07
9.70769e-08
-7.91902e-09
3.70863e-08
4.90255e-08
3.35073e-08
1.36997e-08
6.40736e-08
1.33929e-07
1.32929e-07
4.53499e-08
2.79783e-08
4.38664e-08
3.30451e-08
2.84561e-08
4.34743e-08
2.51728e-08
-9.18102e-08
1.32394e-08
1.0646e-07
-2.86751e-08
-3.09232e-08
-3.32373e-08
-3.61197e-09
-1.39926e-09
9.7295e-09
8.25773e-09
3.45444e-08
-8.6785e-08
-3.4648e-08
3.69303e-08
-8.93552e-10
4.90558e-08
-3.7989e-08
-1.12361e-07
6.95685e-09
1.06656e-07
-1.62513e-07
-3.70719e-07
7.66735e-08
1.93086e-07
1.25786e-07
-7.89743e-09
1.73912e-08
3.33544e-08
2.16196e-08
5.55226e-09
4.27121e-08
1.29884e-07
1.87875e-07
9.66005e-08
3.3983e-08
3.78373e-08
3.4928e-08
3.33347e-08
4.13096e-08
4.24474e-09
-8.09243e-08
-4.69757e-08
3.37123e-08
2.20924e-08
-1.6368e-08
-2.36487e-08
-1.64223e-08
-6.88845e-09
3.54896e-09
3.43497e-09
2.92405e-08
-2.88251e-08
-3.58695e-08
5.76707e-08
-4.71873e-09
1.31934e-08
5.72258e-08
-4.55625e-08
-6.63929e-08
7.46539e-08
1.40345e-08
-1.94252e-07
2.43051e-08
2.79709e-07
1.71651e-07
7.26249e-09
8.14127e-09
2.28708e-08
4.80153e-09
-1.24955e-09
3.17764e-08
1.09218e-07
2.02063e-07
1.60559e-07
5.37152e-08
2.55001e-08
3.2705e-08
3.98618e-08
3.61729e-08
-1.2621e-08
-1.16894e-07
-7.29536e-08
1.4297e-08
5.31209e-08
1.80886e-08
-2.07143e-08
-1.69202e-08
1.73346e-09
-6.40939e-10
4.98056e-09
4.09912e-09
-1.88332e-08
-1.02185e-08
5.33312e-08
-3.2825e-09
-3.48452e-08
1.9659e-08
4.82703e-11
-6.3899e-08
8.88463e-08
-8.48766e-09
-2.19761e-07
-6.36e-08
2.21595e-07
1.42299e-07
4.62229e-09
5.33277e-09
1.07059e-08
-8.07495e-09
-6.0787e-09
2.99618e-08
8.85729e-08
1.78058e-07
1.83252e-07
9.30531e-08
2.82103e-08
2.16003e-08
4.3234e-08
3.6864e-08
-1.35781e-08
-1.23152e-07
-4.97553e-08
4.2345e-08
5.93395e-08
1.12256e-08
-2.12391e-08
-3.02824e-09
-1.59925e-10
2.64461e-09
3.31463e-09
-3.19795e-08
-4.76153e-08
2.00403e-08
5.50638e-08
-1.71575e-08
-2.99732e-08
5.23828e-08
-1.48382e-08
-2.46359e-08
6.78559e-08
5.32495e-08
-1.37121e-07
-9.69309e-08
1.47214e-07
1.05419e-07
2.29672e-08
-5.64122e-09
-5.78127e-09
-2.6025e-10
-3.36371e-09
1.80534e-08
7.85223e-08
1.5121e-07
1.67753e-07
1.26493e-07
3.00311e-08
1.23014e-09
3.62531e-08
4.23856e-08
7.55025e-11
-5.68589e-08
-2.53216e-08
5.29079e-08
5.15808e-08
-1.44118e-09
2.0998e-09
3.4179e-10
-1.13064e-09
-2.05231e-11
-2.42427e-09
-5.05097e-08
-7.72615e-08
1.97973e-08
3.6211e-08
-1.11679e-08
-2.56822e-08
6.28806e-08
1.0471e-08
-6.36818e-10
8.43812e-10
3.61763e-08
2.76388e-08
-2.60925e-10
5.50194e-08
2.52628e-08
8.7029e-09
-3.76769e-08
-5.53581e-08
3.40048e-10
1.10894e-08
1.00359e-08
4.75683e-08
1.23845e-07
1.52891e-07
1.14179e-07
1.26487e-08
-3.49212e-08
1.27633e-08
4.42231e-08
1.00326e-08
-2.65549e-08
-1.52497e-08
2.97389e-08
4.19162e-08
4.14932e-08
2.63854e-09
-3.88817e-09
3.15551e-09
-3.10232e-09
-1.82896e-08
-8.94111e-08
-7.99379e-08
-1.3405e-10
2.83407e-08
-1.39285e-09
-1.4512e-08
-3.80015e-08
-4.3305e-09
1.19179e-08
-2.78622e-09
6.20416e-08
8.60281e-08
5.65362e-08
3.30607e-08
1.79133e-08
4.05502e-08
-2.8825e-08
-9.4013e-08
-1.83301e-08
1.20271e-08
5.16098e-08
-5.22428e-09
-3.94426e-09
9.54761e-08
1.04732e-07
-1.94476e-08
-5.60201e-08
-2.55158e-08
2.80839e-08
-2.18366e-10
-6.98303e-09
-4.1797e-08
-2.97687e-08
6.59633e-09
9.54206e-09
-3.90307e-08
-1.3016e-08
1.27752e-08
7.16955e-09
-1.49266e-08
-9.30296e-08
-9.62512e-08
-2.26709e-08
4.77066e-09
-1.76696e-08
-2.12438e-08
-1.49993e-08
-1.26791e-08
1.11691e-09
4.32507e-08
3.23148e-08
1.3089e-08
1.28139e-08
2.09652e-08
3.11623e-08
1.77083e-08
-1.00779e-08
9.27419e-09
2.51449e-08
-3.206e-08
6.89578e-08
-1.45953e-08
-2.05079e-07
-9.55981e-08
6.6148e-08
3.57943e-08
-5.92636e-08
-4.14223e-08
-1.20823e-09
-1.56312e-08
1.19803e-08
-2.83125e-08
-6.94131e-08
2.04595e-08
5.6911e-09
-3.31436e-08
-1.02829e-08
1.531e-08
2.98001e-08
1.3756e-08
-4.87193e-08
-6.20936e-08
2.59229e-10
-1.86012e-08
-1.61066e-08
-1.74811e-08
7.93071e-09
3.13381e-09
-6.36244e-09
1.88355e-08
7.54711e-09
-1.94365e-08
-1.24635e-08
9.20877e-09
2.24493e-08
3.09142e-08
3.76201e-09
3.42699e-08
3.95694e-08
-1.45235e-08
-2.97409e-09
-2.90475e-08
-2.13351e-07
-2.86756e-07
-1.67685e-08
5.0966e-08
-2.93196e-08
-4.02052e-08
-3.67213e-08
-1.62893e-08
-4.14968e-09
-1.32487e-09
-9.46564e-09
3.89757e-08
1.50492e-08
-2.95029e-10
-5.45397e-09
-1.38711e-08
4.13772e-08
5.0475e-08
1.02237e-08
-1.5257e-09
3.42953e-08
2.06213e-08
-5.02378e-09
-1.26051e-08
1.07594e-08
2.59625e-08
9.22089e-09
7.01384e-09
1.44599e-08
-7.8975e-09
-1.68945e-08
5.83303e-09
1.89394e-08
-5.87197e-09
-3.22049e-09
5.61346e-09
2.49152e-08
-2.70251e-09
-2.8897e-08
7.43541e-08
-1.09591e-08
-1.80888e-07
-9.49287e-08
5.62566e-08
1.17644e-08
-3.67927e-08
-3.38208e-08
-7.31052e-09
-1.28999e-08
-1.60493e-08
-8.0937e-09
-9.46366e-09
-5.45376e-09
4.85532e-09
3.24601e-09
-1.6207e-08
8.3426e-09
2.9464e-08
2.269e-08
2.1627e-08
4.10797e-08
3.42506e-08
9.93644e-09
3.06213e-10
-2.82849e-09
5.36303e-09
7.53291e-09
-2.14063e-10
8.92122e-09
7.42221e-09
1.01742e-11
8.42078e-09
1.49908e-08
2.29097e-09
-1.01009e-09
1.03198e-08
2.67659e-08
1.37359e-08
-1.03405e-08
2.94786e-08
7.05317e-08
-5.99697e-08
-1.17172e-07
1.21919e-09
3.45231e-08
2.6376e-08
-2.02456e-08
-2.11352e-09
-2.03024e-09
-1.04069e-08
-5.74611e-09
1.19895e-08
2.62259e-08
2.34498e-08
-6.08269e-10
-2.004e-08
-1.29987e-08
2.71298e-08
2.34843e-08
1.78899e-08
1.60364e-08
5.49559e-09
3.54746e-09
1.07978e-08
4.96617e-09
-7.06765e-09
-5.42105e-09
-3.80024e-09
-1.00653e-08
3.20113e-09
6.44664e-09
1.25064e-08
3.99198e-10
-2.39753e-08
-1.06454e-08
1.24141e-08
1.74233e-08
1.10073e-08
4.50022e-11
1.02657e-08
3.01909e-08
1.2763e-08
-3.12587e-08
-1.37404e-08
5.63453e-09
-2.29076e-08
-1.94359e-08
-2.32198e-09
5.98208e-09
4.97247e-09
8.55416e-09
2.24502e-08
3.89082e-08
2.86808e-08
1.32498e-08
-3.39528e-08
-5.32321e-08
-1.55694e-08
-9.18564e-09
1.68993e-08
2.43743e-08
9.76544e-09
-2.90931e-09
-3.25819e-09
-7.85733e-09
-1.43346e-08
-9.3984e-09
5.20669e-09
1.4975e-08
2.11003e-08
2.64626e-08
1.70533e-08
3.32399e-09
-7.66518e-09
-7.15103e-09
6.42794e-09
9.02777e-09
-1.92585e-09
-1.73747e-10
8.63217e-09
-2.54217e-09
-7.0962e-09
-2.62936e-09
9.54708e-09
2.90325e-09
-1.8719e-08
-1.84245e-08
-1.29525e-08
-6.50722e-10
5.81637e-10
2.07863e-09
6.23189e-09
1.7681e-08
1.03977e-08
1.37765e-09
7.61713e-09
-5.92684e-09
-3.23295e-10
7.44464e-09
5.10915e-09
-2.8847e-09
-1.44344e-08
-7.71912e-09
1.49352e-08
2.29925e-08
5.51201e-09
-1.13989e-08
-7.38318e-09
1.2424e-08
2.10197e-08
2.5672e-08
9.47745e-09
-1.76269e-09
6.20526e-10
4.33841e-09
5.1539e-09
-9.40507e-09
-1.97306e-08
-1.18787e-09
2.37267e-08
2.26893e-08
4.16255e-09
1.21745e-08
2.49718e-08
1.37679e-08
-9.92026e-09
-2.11812e-08
9.00864e-09
1.39085e-08
-5.46596e-09
-2.27712e-08
-3.39102e-08
-2.73529e-08
-2.05227e-08
-5.11338e-09
1.32001e-08
2.08633e-08
-6.27904e-09
-3.49027e-08
-3.27594e-08
-2.57444e-08
-5.96902e-08
-1.15823e-07
-1.39404e-07
-1.11339e-07
-5.62481e-08
1.01878e-07
2.54251e-07
3.4295e-07
2.73451e-07
4.00721e-08
3.14518e-08
2.99135e-07
4.15862e-07
2.35607e-07
7.70537e-09
-7.29029e-08
3.02398e-08
2.26066e-07
2.83082e-07
9.89824e-08
-2.39209e-09
1.33054e-07
1.64501e-08
-1.14748e-08
1.30449e-08
5.33738e-09
6.05605e-09
2.3565e-08
-8.05728e-09
-6.40987e-08
-8.60791e-08
-6.79511e-08
-5.81016e-08
-2.20746e-08
2.6962e-08
3.96724e-08
-1.66693e-08
-6.94473e-08
-5.76646e-08
-4.03732e-08
-1.05678e-07
-2.43934e-07
-3.48246e-07
-3.26794e-07
-1.46798e-07
2.82314e-07
5.44703e-07
4.80331e-07
3.63164e-07
1.09966e-07
-9.83375e-08
8.72276e-08
3.54109e-07
2.70094e-07
-1.85714e-08
-1.35323e-07
3.76073e-08
4.06318e-07
5.9543e-07
2.7653e-07
-1.29815e-07
8.09363e-08
4.76441e-08
-8.18459e-08
-2.77931e-08
-2.85639e-08
1.80812e-08
3.86357e-08
-7.88996e-09
-6.76857e-08
-7.80711e-08
-5.63835e-08
-5.32319e-08
-2.83046e-08
2.11759e-08
3.96055e-08
-8.14248e-09
-6.10818e-08
-4.89947e-08
-3.77198e-08
-9.72531e-08
-2.235e-07
-3.26249e-07
-3.04448e-07
-1.34187e-07
2.1052e-07
4.32626e-07
2.41724e-07
1.271e-07
1.42689e-07
3.8912e-08
5.60127e-08
1.36835e-07
1.1191e-07
-9.85547e-09
-5.95288e-08
3.26235e-08
2.51779e-07
3.92653e-07
2.05453e-07
-9.50474e-08
-2.32603e-08
3.67238e-08
-9.89722e-08
-5.18118e-08
-4.45015e-08
1.1948e-08
4.82092e-08
8.33117e-10
-3.95997e-08
-4.53133e-08
-2.91859e-08
-3.19141e-08
-2.51746e-08
-4.68405e-09
1.24753e-08
2.62218e-09
-4.72904e-08
-3.51458e-08
-2.62546e-08
-7.56246e-08
-1.78003e-07
-2.57878e-07
-2.2339e-07
-8.01845e-08
6.81713e-08
1.29726e-07
-1.27095e-07
-1.46678e-07
1.66566e-07
2.93111e-07
2.32287e-07
6.58938e-08
-2.89592e-08
-2.5327e-08
2.40962e-08
5.54027e-08
1.19397e-07
1.68252e-07
9.04413e-08
-8.4799e-09
7.70903e-08
4.81138e-08
-1.11209e-07
-5.94008e-08
-6.75642e-08
-2.38939e-08
6.82664e-08
1.49647e-08
-2.53892e-08
-2.9446e-08
-1.39911e-08
-1.09818e-08
-1.90786e-08
-2.95415e-08
-1.22461e-08
8.30239e-09
-3.43793e-08
-3.36806e-08
-1.94511e-08
-6.86265e-08
-1.70312e-07
-2.49337e-07
-1.96547e-07
-4.58818e-08
1.08223e-08
-5.36447e-08
-3.3958e-07
-3.19369e-07
1.671e-07
4.05667e-07
3.27715e-07
7.06612e-08
-5.02149e-08
-3.26786e-08
3.99434e-08
6.42234e-08
7.24886e-08
8.20033e-08
4.47405e-08
2.64795e-08
1.1048e-07
5.99709e-08
-1.10074e-07
-4.60162e-08
-9.02375e-08
-1.13182e-07
9.53836e-08
3.87933e-08
-5.32355e-08
-4.2129e-08
-1.92622e-08
5.40743e-09
-2.56304e-09
-4.04318e-08
-3.69377e-08
1.00415e-08
-2.33866e-09
-3.34141e-08
-1.33109e-08
-5.59382e-08
-1.63566e-07
-2.53934e-07
-1.96881e-07
-5.49992e-08
1.00142e-08
-1.42336e-07
-4.62892e-07
-4.32481e-07
1.34128e-07
4.39155e-07
3.44151e-07
5.82876e-08
-3.16522e-08
-2.53685e-08
2.78645e-08
7.06857e-08
9.09889e-08
8.03231e-08
2.85409e-08
3.33935e-08
8.99421e-08
4.1587e-08
-9.54163e-08
-2.05339e-08
-8.11939e-08
-2.08537e-07
6.81644e-08
7.67302e-08
-1.06111e-07
-7.15263e-08
-4.07638e-08
8.5065e-09
1.35007e-08
-3.94728e-08
-1.02898e-07
-5.78822e-09
4.63793e-08
-1.92451e-08
-2.16347e-08
-3.51365e-08
-1.25213e-07
-2.1397e-07
-1.76259e-07
-7.38664e-08
2.02219e-08
-1.8088e-07
-5.94713e-07
-5.53005e-07
6.68842e-08
4.33591e-07
2.99055e-07
-2.36018e-09
-3.97529e-08
-1.82182e-08
1.27189e-08
7.50714e-08
1.39739e-07
1.32065e-07
3.28375e-08
2.70142e-08
9.83947e-08
2.965e-08
-7.92094e-08
2.67377e-09
-1.85726e-08
-2.57393e-07
-9.04741e-08
1.14551e-07
-1.38962e-07
-1.11833e-07
-5.57002e-08
-1.48729e-08
1.55783e-08
-2.24405e-08
-1.61451e-07
-9.1839e-08
8.28967e-08
2.62436e-08
-3.83308e-08
-1.77349e-08
-5.6706e-08
-1.44165e-07
-1.54604e-07
-1.08449e-07
1.85624e-08
-1.66999e-07
-7.34594e-07
-6.78046e-07
-2.99775e-08
3.50628e-07
2.07269e-07
-6.72388e-08
-5.94958e-08
-1.53967e-08
1.73755e-08
7.9975e-08
1.75951e-07
1.99423e-07
6.47966e-08
-2.55229e-09
9.61648e-08
4.81377e-08
-6.45362e-08
1.55076e-09
8.3451e-08
-3.08223e-07
-3.59455e-07
1.26188e-07
-1.16362e-07
-1.39803e-07
-4.67495e-08
-4.73337e-08
1.69417e-08
1.55356e-08
-1.41485e-07
-2.02283e-07
5.11338e-09
1.0669e-07
-5.76107e-08
-3.01679e-09
9.10124e-09
-7.80473e-08
-1.61568e-07
-1.58844e-07
1.20679e-08
-1.26253e-07
-8.11798e-07
-8.0035e-07
-1.18074e-07
2.76303e-07
1.05e-07
-1.08924e-07
-7.31247e-08
-1.46677e-08
1.73184e-08
7.57602e-08
1.8373e-07
2.41335e-07
1.14597e-07
-1.69954e-08
5.76988e-08
7.65235e-08
-2.96781e-08
4.1193e-08
1.62047e-07
-2.70378e-07
-6.29123e-07
7.76393e-08
-5.93628e-08
-3.16155e-07
-3.45139e-08
-5.2947e-08
5.98207e-09
4.77691e-08
-7.01616e-08
-1.94737e-07
-1.41606e-07
1.22031e-07
-6.96304e-08
-1.46572e-08
4.81585e-08
-4.66088e-08
-1.93539e-07
-1.99727e-07
1.89513e-08
-6.98383e-08
-7.85874e-07
-9.16168e-07
-1.77176e-07
2.24082e-07
2.63835e-08
-1.11331e-07
-7.11448e-08
-1.412e-08
1.37745e-08
5.9276e-08
1.6773e-07
2.66084e-07
1.59459e-07
1.65153e-09
2.66523e-08
6.58568e-08
1.56033e-09
5.46574e-08
1.62642e-07
-1.98812e-07
-8.50516e-07
-3.79446e-08
-1.43651e-08
-4.09942e-07
-1.36194e-07
-4.73971e-08
-7.93545e-09
4.07226e-08
-2.10576e-08
-1.24686e-07
-1.46212e-07
1.96429e-08
-1.30543e-08
-2.62674e-08
7.37252e-08
-6.46048e-09
-1.84354e-07
-2.00344e-07
4.80077e-08
1.46222e-09
-6.67267e-07
-9.15876e-07
-2.30271e-07
1.68751e-07
3.45461e-08
-6.771e-08
-5.78222e-08
-1.27218e-08
7.96384e-09
3.04377e-08
1.39338e-07
2.55694e-07
1.78174e-07
3.15837e-08
2.17468e-08
4.96845e-08
1.58638e-08
5.09248e-08
1.55478e-07
-8.93619e-08
-8.29725e-07
-1.21903e-07
6.90154e-08
-2.17418e-07
-4.81713e-08
-1.65432e-08
-1.23504e-08
2.36916e-08
8.05969e-10
-6.37602e-08
-7.51483e-08
-2.74759e-08
3.87296e-08
1.04627e-09
8.38454e-08
8.30093e-08
-9.87849e-08
-1.56074e-07
7.78578e-08
9.33454e-08
-4.9927e-07
-8.03143e-07
-2.31449e-07
1.27238e-07
4.50357e-08
-3.60228e-08
-4.48453e-08
-1.22637e-08
-4.62677e-09
-1.39765e-09
8.25943e-08
2.07013e-07
2.20235e-07
7.13573e-08
1.97407e-08
4.50381e-08
2.3481e-08
4.13459e-08
1.2571e-07
-1.48612e-08
-5.18658e-07
-4.96474e-08
1.76247e-07
-1.67557e-07
-3.45469e-09
1.25514e-08
-3.53499e-09
5.08932e-09
1.90207e-08
-5.16999e-08
-4.21804e-08
6.3749e-09
-1.41515e-08
5.77524e-08
3.34718e-08
1.44765e-07
5.3364e-09
-8.65532e-08
6.66267e-08
1.75787e-07
-2.60451e-07
-6.0371e-07
-1.86703e-07
1.15911e-07
3.45732e-08
-2.37099e-08
-3.9023e-08
-9.37488e-09
-1.39552e-08
-2.19622e-08
3.67767e-08
1.34014e-07
2.21474e-07
1.16888e-07
1.138e-08
2.24606e-08
2.73009e-08
3.33727e-08
8.82842e-08
-1.24759e-08
-2.51527e-07
-1.64876e-09
1.59751e-07
-8.2726e-08
-2.07736e-08
-8.69066e-09
-2.08587e-09
1.5199e-10
9.33551e-09
-4.90396e-08
-5.77073e-08
-1.80915e-09
6.90883e-09
5.14781e-08
2.05281e-08
1.20551e-07
4.65022e-08
-1.75248e-08
1.56195e-08
1.45119e-07
-4.52826e-08
-3.8133e-07
-1.3809e-07
1.02955e-07
7.22682e-08
-2.53575e-08
-4.07564e-08
-7.57851e-09
-2.45834e-08
-3.12487e-08
1.01077e-08
3.46217e-08
1.38946e-07
1.38694e-07
2.01001e-08
-2.85125e-08
1.56696e-08
2.65432e-08
4.50048e-08
-3.72462e-08
-1.0878e-07
2.27031e-08
1.30717e-07
4.79548e-09
-2.41508e-08
-5.74583e-09
-1.17233e-09
1.52983e-09
2.41303e-09
-7.94583e-08
-1.36073e-07
-1.9654e-08
1.79544e-08
4.7499e-08
3.01474e-08
4.99206e-08
7.20468e-08
2.38472e-08
-1.93283e-08
5.15091e-08
-2.03293e-08
-2.87637e-07
-1.60276e-07
5.69061e-08
3.34407e-08
-5.46247e-08
-2.04863e-08
-8.35765e-10
-1.65863e-08
-2.09282e-08
6.87072e-09
-1.81085e-08
1.52145e-08
1.36393e-07
7.11562e-08
-6.69906e-08
-1.69531e-08
2.07201e-08
1.63065e-08
-4.61959e-08
-8.11403e-08
3.84024e-08
1.06825e-07
3.71935e-08
-5.85314e-09
-5.97463e-09
-1.9881e-09
-1.91204e-09
2.49878e-09
-8.47424e-08
-2.34598e-07
-7.59357e-08
1.76649e-08
6.91379e-08
-2.66624e-08
-6.2959e-10
7.89733e-08
3.3046e-08
-1.73727e-08
2.85517e-08
2.0621e-09
-2.24639e-07
-1.61388e-07
3.51656e-08
-2.0604e-08
-5.71226e-08
-7.96444e-09
8.5705e-09
9.16305e-09
2.95253e-09
9.12541e-10
1.40858e-09
-3.93966e-08
8.05143e-08
1.21377e-07
-7.57985e-08
-6.01774e-08
1.09429e-08
5.91502e-09
-3.85193e-08
-5.46746e-08
3.7882e-08
8.80342e-08
2.99969e-08
-4.23623e-09
-7.3186e-09
-5.63137e-09
-2.90105e-09
1.56921e-10
-6.32994e-08
-2.75205e-07
-1.52603e-07
5.44504e-08
2.54313e-08
-5.39367e-08
-6.23409e-10
8.13303e-08
3.49433e-08
-3.35235e-09
3.36554e-08
4.51634e-08
-4.4032e-08
-2.51653e-08
4.61258e-08
-8.01012e-08
-7.77828e-08
-4.03754e-09
-2.49462e-08
-3.11579e-08
-7.54184e-10
-3.46097e-08
4.36494e-09
8.99928e-09
2.25548e-09
9.88894e-08
-4.9998e-08
-1.04091e-07
-1.40494e-08
8.18195e-09
-1.1395e-08
-1.64918e-08
4.28216e-08
5.85041e-08
1.33938e-08
2.14701e-09
-3.28115e-09
-1.08839e-08
1.2293e-09
3.82507e-09
-4.64224e-08
-2.38984e-07
-2.15927e-07
1.88155e-08
-3.87446e-08
-9.00864e-08
-1.49824e-08
4.46033e-08
2.38206e-08
2.99117e-09
-1.57042e-08
2.91287e-08
7.46132e-08
9.68722e-08
7.43658e-08
-3.9181e-08
-4.93541e-08
-2.68403e-09
-7.12715e-08
-4.81059e-08
4.03001e-08
-1.80366e-08
-8.06887e-08
7.5247e-09
-2.12486e-08
2.99612e-08
2.61324e-08
-1.25464e-07
-6.74581e-08
9.23455e-09
1.1363e-08
1.9115e-08
2.97799e-08
1.2005e-08
-1.1232e-08
1.56342e-09
-1.69695e-08
-2.67573e-08
1.56651e-09
2.1372e-08
-2.05828e-08
-1.46711e-07
-1.70003e-07
-3.31292e-08
-6.29061e-08
-7.74847e-08
-2.64745e-08
7.85064e-09
-2.23898e-09
8.5661e-09
-8.32524e-10
1.45526e-08
7.26745e-08
7.70647e-08
4.77495e-08
2.30378e-08
2.66356e-08
1.1471e-08
-1.77368e-08
3.60728e-09
1.42378e-08
-2.11329e-08
-1.63716e-07
-2.11083e-07
-4.94572e-08
-1.74494e-08
3.495e-08
-5.28317e-08
-7.35439e-08
-1.38041e-08
2.67459e-11
2.28771e-08
1.87124e-08
-8.86014e-09
-2.52777e-10
1.16546e-08
-1.85021e-08
-2.45971e-08
2.2927e-09
4.07196e-08
1.65097e-08
-6.91699e-08
-7.28541e-08
-3.45941e-09
-1.5696e-08
-2.75184e-08
-1.31228e-08
-1.88538e-09
-5.17297e-09
1.49365e-09
1.25325e-08
9.24452e-09
1.89449e-08
2.27214e-08
1.45839e-08
1.62434e-08
6.47239e-08
1.43784e-08
1.46226e-08
3.87406e-09
-3.505e-08
-1.15817e-08
-1.50431e-07
-3.75668e-07
-2.75349e-07
-1.96651e-08
-1.2569e-08
-7.2743e-08
-1.00431e-07
-5.45946e-08
-1.3268e-08
-2.24802e-09
-2.50453e-09
-2.02754e-09
1.44387e-08
4.61803e-09
-8.35005e-09
-1.03565e-08
-6.79585e-09
1.75206e-08
3.41639e-08
-3.2278e-08
-4.8319e-08
3.01404e-08
7.31572e-08
9.91187e-09
-1.23463e-08
3.39085e-09
2.02051e-08
1.23474e-08
9.28167e-09
6.67923e-09
-3.63765e-09
-1.15791e-09
1.85232e-08
4.5243e-08
5.76579e-08
2.41398e-08
2.24106e-08
1.42574e-08
-2.28444e-08
5.51176e-09
-3.13653e-09
-2.27362e-07
-3.54476e-07
-9.42289e-08
-6.17421e-09
-7.54317e-08
-1.02515e-07
-2.75334e-08
-8.34784e-09
-1.58956e-08
-1.48081e-08
5.8334e-09
3.4357e-09
-1.62459e-08
-1.04333e-08
1.05271e-09
-2.61663e-09
1.76876e-08
3.21266e-08
-3.03927e-09
-3.29197e-08
3.52546e-08
8.49664e-08
3.34606e-08
-1.67424e-09
7.42751e-09
1.43238e-08
2.43794e-09
-5.85761e-09
4.70509e-10
2.91936e-09
9.11968e-10
1.39951e-08
8.58706e-09
-4.59403e-08
1.30108e-08
2.63434e-08
2.71986e-08
-1.87962e-09
1.62022e-09
5.99295e-08
2.18204e-08
-1.28663e-07
-8.85573e-08
2.26432e-08
1.86827e-08
4.58133e-09
-1.03687e-08
6.70144e-11
-9.17378e-10
-1.48626e-08
-5.00161e-09
-2.887e-09
-8.85541e-09
4.82042e-09
5.88547e-09
-1.0195e-08
-1.58825e-08
1.44555e-09
-3.4488e-09
-6.57374e-09
7.60722e-09
1.98761e-08
-1.51315e-09
-3.50887e-09
1.46099e-08
1.71678e-08
1.07479e-08
2.84996e-09
1.0204e-09
-8.07301e-10
-2.61018e-09
3.05355e-09
-3.55515e-09
-2.77259e-08
-9.90997e-09
1.69921e-08
2.49248e-08
9.42788e-09
1.0283e-09
3.00846e-08
4.75234e-08
2.2975e-09
-1.1234e-08
3.00184e-08
9.20072e-09
1.40259e-08
-1.31762e-08
-1.33175e-08
-2.90791e-10
1.39013e-09
3.39583e-09
4.00336e-09
1.55866e-08
2.63171e-08
7.74696e-09
-4.72783e-09
-9.50311e-09
-3.55311e-08
-4.47165e-08
-9.83551e-09
2.52985e-08
2.56759e-08
4.09125e-09
-3.93904e-09
-5.51029e-09
-8.621e-09
1.47595e-10
1.19659e-08
1.49315e-08
1.27238e-08
8.05277e-09
3.09891e-09
-2.81257e-09
-8.27082e-09
-1.45742e-08
-4.65067e-09
1.3809e-08
6.89359e-09
-8.69579e-09
-8.11052e-09
2.5024e-09
1.10491e-08
1.10756e-08
2.86209e-08
1.61015e-08
-3.13529e-08
-2.60107e-08
-2.75766e-08
-7.8587e-09
3.82057e-09
2.25586e-09
8.83718e-09
2.2833e-08
1.93859e-08
9.7261e-09
2.28211e-10
-1.27173e-09
6.0519e-09
8.723e-10
-2.58166e-09
1.18219e-08
1.18899e-08
-3.87937e-09
-7.85313e-09
2.58678e-09
2.11649e-09
-9.73522e-09
-3.97382e-09
1.18318e-08
6.73617e-09
-2.9466e-09
-5.63675e-09
-3.94607e-09
-1.61908e-09
2.61461e-09
4.27634e-09
-2.86325e-09
-6.56402e-09
5.28551e-09
6.23423e-09
-3.1507e-08
-1.75525e-08
1.474e-08
2.83929e-08
3.22635e-08
-1.51823e-09
-2.46829e-08
6.85197e-08
2.86255e-10
-2.33967e-08
-4.07833e-08
-2.05634e-08
2.24859e-08
4.06499e-08
3.64153e-08
1.58491e-08
-9.1011e-09
-2.55543e-08
-2.46312e-08
-3.23329e-09
2.18203e-09
-1.6184e-08
2.66472e-10
6.95806e-08
8.2699e-08
2.2763e-08
2.63929e-08
8.7185e-08
1.2405e-07
1.10287e-07
2.15214e-08
-6.73621e-09
5.42657e-08
4.85343e-08
-3.08502e-08
-1.03444e-07
-1.10772e-07
2.52444e-08
1.90808e-07
1.77432e-07
4.87158e-08
3.08348e-08
9.60538e-08
4.03307e-08
4.39829e-09
2.21222e-09
3.57638e-08
5.38964e-08
-2.3631e-08
-7.45369e-08
-1.57849e-07
-7.57944e-08
6.21522e-08
8.26415e-08
2.58505e-08
-2.38812e-08
-3.51671e-08
-4.24171e-08
-4.06712e-08
-6.53475e-09
7.45507e-10
-4.23036e-08
-5.55743e-08
-2.1294e-09
-6.43616e-08
-1.71435e-07
1.08646e-07
4.39301e-07
3.0933e-07
9.82394e-08
-1.74987e-08
-2.17675e-08
4.88564e-08
1.08284e-08
-1.192e-07
-2.29338e-07
-2.28511e-07
4.97749e-08
4.34773e-07
4.671e-07
1.56906e-07
-2.88558e-08
8.02676e-08
6.38853e-08
2.40714e-08
2.37858e-08
4.64969e-08
1.73197e-08
-2.59463e-08
-6.1294e-08
-1.52989e-07
-8.70055e-08
6.05956e-08
7.64843e-08
1.06466e-09
-5.47831e-08
-4.59852e-08
-2.77673e-08
-2.35621e-08
-1.86652e-09
1.46242e-09
-4.99255e-08
-8.46776e-08
-6.17862e-08
-1.12076e-07
-2.01614e-07
4.63564e-08
4.12646e-07
3.13068e-07
4.00764e-08
-5.69115e-08
-1.56754e-08
4.90672e-08
-7.36174e-09
-1.10889e-07
-1.60363e-07
-1.52759e-07
1.6191e-08
2.8584e-07
3.39026e-07
1.31523e-07
-3.42459e-08
1.67026e-08
4.58118e-08
4.19175e-08
4.34967e-08
1.45235e-08
-5.03346e-08
-2.36206e-08
-8.25649e-09
-9.04584e-08
-7.59152e-08
4.57944e-08
5.82753e-08
-1.46042e-08
-5.78475e-08
-3.31289e-08
-4.60448e-09
-8.68127e-09
-3.33758e-09
-3.18215e-09
-4.15442e-08
-6.95606e-08
-3.88777e-08
-2.91846e-08
-8.46821e-08
-1.44781e-08
1.56528e-07
1.04225e-08
-1.55619e-07
-1.02691e-07
4.67814e-08
1.4748e-07
5.90281e-08
-4.73075e-08
-3.98881e-08
-3.91053e-08
-7.00568e-09
1.00037e-07
1.17116e-07
1.59878e-08
-1.48474e-08
7.15885e-08
7.33369e-08
7.38938e-08
7.46178e-08
-5.63586e-08
-1.60555e-07
-3.78976e-08
4.17498e-08
-4.58375e-08
-7.06931e-08
3.99081e-08
5.4722e-08
-2.31615e-08
-6.66765e-08
-2.65061e-08
1.25606e-08
-3.71638e-10
1.18882e-09
-3.35233e-09
-3.98056e-08
-5.56352e-08
-1.39712e-08
3.59948e-08
1.44117e-08
2.03643e-08
1.07845e-07
-1.05633e-07
-2.83378e-07
-1.21422e-07
8.9005e-08
2.1743e-07
1.19088e-07
-1.43656e-08
2.6783e-09
1.74667e-08
-1.02389e-08
3.93102e-08
5.26522e-08
-1.3916e-08
-1.28767e-08
8.82803e-08
9.14568e-08
1.10015e-07
1.36325e-07
-1.44553e-07
-4.22342e-07
-4.75566e-08
9.15521e-08
-3.58567e-08
-7.27177e-08
4.33251e-08
6.59075e-08
-2.56442e-08
-8.01919e-08
-2.4492e-08
2.7853e-08
1.29046e-08
1.36752e-08
1.41475e-08
-2.57869e-08
-4.15004e-08
-5.35505e-10
7.24704e-08
4.47271e-08
2.83405e-08
1.45782e-07
-7.63319e-08
-2.80547e-07
-1.25414e-07
9.47719e-08
2.22026e-07
1.27349e-07
-1.97913e-08
-1.21789e-08
1.47635e-08
2.28e-09
4.96919e-08
7.6172e-08
1.31604e-08
-1.46275e-08
5.27346e-08
6.98406e-08
1.20632e-07
2.07463e-07
-2.07911e-07
-8.33691e-07
-1.41049e-07
1.41225e-07
-4.03491e-08
-7.55403e-08
5.41614e-08
8.67796e-08
-8.6587e-09
-7.93054e-08
-1.56065e-08
4.59178e-08
2.58138e-08
2.59742e-08
3.09705e-08
3.85997e-09
-1.50127e-08
1.38991e-08
9.29499e-08
5.71139e-08
1.19452e-08
1.07098e-07
-1.7456e-07
-3.9765e-07
-1.36142e-07
7.81768e-08
1.9354e-07
9.98071e-08
-3.22467e-08
-3.22174e-08
6.24188e-13
1.5986e-08
1.00185e-07
1.42541e-07
5.7789e-08
-9.48743e-09
3.00046e-08
4.16245e-08
1.04181e-07
2.65979e-07
-2.03515e-07
-1.25543e-06
-4.3469e-07
1.81361e-07
-3.33856e-08
-8.75162e-08
5.46784e-08
1.20292e-07
2.42798e-08
-3.87974e-08
-1.16235e-08
5.37439e-08
3.38374e-08
3.76612e-08
4.57156e-08
1.91045e-08
-5.67269e-10
1.58709e-08
8.99063e-08
3.30148e-08
-1.02306e-08
3.43581e-08
-3.73754e-07
-5.54259e-07
-1.75211e-07
4.9093e-08
1.39058e-07
5.0819e-08
-4.66957e-08
-4.89987e-08
-5.21835e-09
4.65455e-08
1.63035e-07
2.32459e-07
1.25808e-07
1.9639e-09
1.58222e-08
2.2103e-08
7.86463e-08
2.86226e-07
-1.7563e-07
-1.46211e-06
-7.8944e-07
2.68036e-07
1.10757e-08
-1.0742e-07
5.20794e-08
1.45635e-07
6.30198e-08
6.42796e-09
4.67311e-10
4.19701e-08
2.42419e-08
5.3408e-08
5.41902e-08
2.4225e-08
-1.0583e-09
1.41727e-08
7.75637e-08
-2.14033e-08
-4.08581e-08
-2.24331e-08
-5.53873e-07
-7.56105e-07
-2.29305e-07
3.03417e-08
8.57538e-08
1.03871e-08
-5.69834e-08
-5.36198e-08
-2.84897e-08
4.9857e-08
1.94915e-07
2.89919e-07
1.83726e-07
2.85485e-08
3.45724e-09
2.24191e-08
4.9311e-08