/*--------------------------------*- C++ -*----------------------------------*\
| =========                 |                                                 |
| \\      /  F ield         | OpenFOAM: The Open Source CFD Toolbox           |
|  \\    /   O peration     | Version:  5.0                                   |
|   \\  /    A nd           | Web:      www.OpenFOAM.org                      |
|    \\/     M anipulation  |                                                 |
\*---------------------------------------------------------------------------*/
FoamFile
{
    version     2.0;
    format      ascii;
    class       volScalarField;
    location    "50.4676134421789371";
    object      pressDiff;
}
// * * * * * * * * * * * * * * * * * * * * * * * * * * * * * * * * * * * * * //

dimensions      [0 2 -3 0 0 0 0];

internalField   nonuniform List<scalar> 
60000
(
1.9611e-08
4.99404e-08
9.30054e-08
7.29165e-08
2.56657e-08
1.06363e-08
2.81351e-08
4.362e-08
1.08213e-08
3.50691e-09
2.57816e-08
5.39152e-09
3.73011e-09
8.61849e-09
2.51203e-09
-2.75534e-08
-5.02296e-08
-5.99566e-08
-1.01673e-09
2.26288e-07
5.01245e-07
5.64119e-07
2.0613e-07
-2.28444e-07
-5.09899e-07
-4.28475e-07
1.12371e-07
2.55415e-07
5.52213e-08
-7.06134e-09
3.92162e-08
9.14074e-08
8.80157e-08
-2.70136e-08
-1.52624e-08
9.20075e-08
3.6252e-08
1.70362e-08
1.77171e-08
6.47222e-09
4.55282e-08
5.90608e-08
8.4576e-08
9.03781e-08
4.47567e-08
1.99037e-08
5.56238e-08
5.54955e-08
-6.16743e-08
-2.36119e-08
9.22924e-08
2.16021e-08
1.23106e-08
5.08152e-09
-3.52339e-08
-1.20069e-07
-2.61208e-07
-3.1434e-07
-5.85485e-08
3.96814e-07
7.24609e-07
7.93663e-07
4.52264e-07
-3.45543e-07
-1.1953e-06
-1.15466e-06
1.40515e-07
6.16153e-07
1.89536e-07
-2.8931e-09
8.28077e-08
1.83297e-07
1.83663e-07
-7.00034e-08
-1.52121e-07
7.82207e-08
5.43717e-08
1.4375e-09
4.03996e-08
1.70153e-08
5.95289e-08
5.50871e-08
6.28017e-09
5.13329e-09
2.71615e-08
1.29507e-08
4.24937e-08
6.84765e-08
-6.50862e-08
-2.77946e-08
1.29759e-07
3.4546e-08
2.16649e-08
1.04041e-08
-3.95967e-08
-1.33737e-07
-3.03733e-07
-3.48346e-07
-5.99225e-08
2.51541e-07
3.91166e-07
4.07836e-07
4.28145e-07
-9.19401e-09
-8.21385e-07
-9.7354e-07
2.70792e-08
4.71775e-07
1.87819e-07
2.31107e-08
5.4138e-08
9.56165e-08
1.10291e-07
-4.43954e-08
-1.34624e-07
1.41923e-08
6.74319e-08
-8.77318e-09
3.32599e-08
1.41316e-08
6.20844e-08
8.89582e-08
5.30101e-08
2.89046e-08
4.63463e-08
1.12789e-08
7.91455e-09
6.9294e-08
-2.78455e-08
-4.46369e-08
1.48371e-07
5.41775e-08
3.38135e-08
-2.27193e-09
-6.8213e-08
-1.35921e-07
-2.52246e-07
-2.31504e-07
1.94007e-08
9.99678e-09
-9.9018e-08
-3.38942e-08
3.75172e-07
3.28823e-07
-3.2261e-07
-6.09113e-07
-5.68702e-08
2.22219e-07
7.67659e-08
2.67456e-09
-6.78344e-09
-3.35305e-08
9.50936e-09
-2.30862e-08
-2.83766e-08
8.78356e-08
5.0365e-08
-7.48462e-08
-1.05128e-08
3.9562e-10
7.63538e-08
1.64549e-07
1.50658e-07
8.91398e-08
8.96989e-08
1.20126e-08
-2.37446e-08
7.18488e-08
4.15609e-08
-4.15673e-08
1.84076e-07
9.96232e-08
7.24308e-08
6.63241e-09
-7.91539e-08
-1.35816e-07
-2.66412e-07
-2.51424e-07
7.58817e-08
-1.45757e-07
-5.51725e-07
-3.66405e-07
3.89078e-07
4.88044e-07
-1.07667e-07
-4.74628e-07
-1.14841e-07
1.36332e-07
3.66089e-08
-4.98321e-08
-6.35889e-08
-9.98723e-08
-5.63065e-08
-8.30619e-09
6.3006e-08
1.48952e-07
6.77565e-08
-9.35173e-08
-2.83976e-08
-2.86998e-09
5.12774e-08
1.98169e-07
2.24434e-07
8.18225e-08
8.46871e-08
1.35288e-08
-3.21702e-08
5.90485e-08
1.12447e-07
-2.3054e-08
1.21355e-07
1.40198e-07
1.88849e-07
5.2879e-08
-5.76353e-08
-1.41518e-07
-3.4909e-07
-3.95156e-07
4.9285e-08
-1.8235e-07
-9.92441e-07
-7.84828e-07
3.31393e-07
4.20258e-07
-7.15409e-10
-4.21139e-07
-1.7418e-07
9.52549e-08
4.59371e-08
-5.91254e-08
-7.29168e-08
-9.313e-08
-7.95401e-08
-9.16571e-09
1.15242e-07
1.84347e-07
9.83833e-08
-4.45583e-08
-1.22221e-08
1.53668e-08
9.91141e-11
1.50175e-07
2.98277e-07
4.80698e-08
2.62957e-08
1.47445e-08
-2.10467e-08
3.44314e-08
1.67641e-07
2.07954e-08
1.44922e-08
1.15616e-07
3.28259e-07
1.38956e-07
-3.90571e-08
-1.62396e-07
-4.30603e-07
-5.07641e-07
-4.12487e-08
-1.49431e-07
-1.37558e-06
-1.36045e-06
-1.80178e-08
2.61514e-07
3.84377e-08
-3.66139e-07
-1.84082e-07
6.34781e-08
4.1312e-08
-3.09838e-08
-3.13949e-08
-2.31572e-08
-5.66602e-08
-2.96933e-08
1.20308e-07
2.1092e-07
1.19553e-07
-3.30373e-09
6.20052e-09
4.28601e-08
-6.88383e-09
4.48197e-08
3.1596e-07
8.67384e-08
-2.78744e-08
7.51323e-09
1.07392e-08
3.62173e-08
1.57843e-07
7.8329e-08
-7.51937e-08
-5.64991e-08
2.27713e-07
2.31708e-07
-4.25093e-08
-1.73495e-07
-4.00863e-07
-5.50131e-07
-1.5036e-07
-4.44433e-08
-1.48859e-06
-2.03118e-06
-3.88579e-07
3.35612e-07
4.18156e-07
-3.13243e-07
-1.28307e-07
4.7542e-08
3.35777e-08
3.12563e-09
2.35771e-08
7.37364e-08
4.66661e-08
-2.25387e-08
5.74649e-08
1.88864e-07
1.153e-07
1.14056e-08
1.05742e-08
5.52922e-08
9.86224e-09
-7.22784e-08
2.66709e-07
1.95366e-07
-2.74814e-08
2.55991e-10
5.3136e-08
7.53778e-08
1.09019e-07
8.94457e-08
-6.54294e-08
-2.62345e-07
5.47147e-08
2.38718e-07
-7.84102e-08
-1.518e-07
-2.70792e-07
-5.33606e-07
-2.29194e-07
8.59139e-08
-1.21512e-06
-2.45169e-06
-9.10777e-07
3.62027e-07
9.48086e-07
-1.72455e-07
-3.03388e-08
3.81766e-08
3.20065e-08
2.49173e-08
4.56029e-08
1.17371e-07
1.47802e-07
5.21934e-08
2.5979e-09
1.12767e-07
9.81948e-08
1.54359e-08
1.73099e-08
5.80322e-08
-1.2789e-08
-1.75652e-07
1.81874e-07
2.59605e-07
-3.97193e-08
9.99728e-10
6.71954e-08
1.00589e-07
8.87368e-08
3.83557e-08
-1.13028e-08
-4.43091e-07
-2.01387e-07
1.20639e-07
-1.54652e-07
-7.02545e-08
-1.35241e-07
-5.05304e-07
-2.55813e-07
1.57967e-07
-7.16595e-07
-2.32939e-06
-1.3624e-06
4.11955e-07
8.6869e-07
2.25892e-08
3.21767e-08
2.98373e-08
4.26524e-08
3.70952e-08
3.59757e-08
1.13029e-07
1.91776e-07
1.24654e-07
8.37994e-09
4.91422e-08
7.61748e-08
2.52359e-08
3.22541e-08
5.86125e-08
2.95908e-08
-2.03111e-07
8.29332e-08
2.4116e-07
-5.91658e-08
-1.56042e-08
5.62194e-08
9.51026e-08
1.01115e-07
2.49387e-08
8.13667e-09
-3.03088e-07
-5.65574e-07
-2.18901e-08
-1.4979e-07
-4.00909e-08
-1.71837e-08
-4.28981e-07
-2.5461e-07
1.62396e-07
-2.96716e-07
-1.69668e-06
-1.49666e-06
3.40806e-07
6.79197e-07
3.22541e-07
1.78376e-08
2.69345e-08
5.31461e-08
3.80517e-08
1.10477e-08
8.44326e-08
2.26757e-07
1.77836e-07
3.99232e-08
3.52378e-08
6.34968e-08
3.83444e-08
4.20034e-08
7.62313e-08
5.99727e-08
-1.46494e-07
2.00321e-08
2.15986e-07
-5.01896e-08
-3.90236e-08
-6.47179e-09
5.37233e-08
5.3467e-08
4.20368e-08
7.632e-09
-5.7439e-08
-4.73664e-07
-1.16798e-07
-3.56893e-08
1.67763e-08
1.47206e-07
-2.471e-07
-2.54191e-07
1.09722e-07
1.49502e-09
-9.02601e-07
-1.22863e-06
2.38914e-07
9.26198e-08
3.74845e-07
-5.02831e-08
2.15241e-08
4.75188e-08
3.68894e-08
-5.15969e-09
6.01939e-08
2.25493e-07
2.27309e-07
8.55571e-08
4.51985e-08
6.18184e-08
4.69841e-08
5.1638e-08
8.62934e-08
4.05073e-08
-1.23864e-07
-2.74816e-08
1.57554e-07
-9.26505e-08
-8.48379e-08
-9.14274e-08
-2.62754e-10
1.80236e-08
4.78662e-08
4.88848e-09
4.80954e-08
-2.55909e-07
-1.63054e-07
6.98577e-08
3.31137e-08
1.7411e-07
-3.01526e-08
-2.09926e-07
-4.42206e-08
1.50318e-07
-2.42768e-07
-7.52492e-07
-1.33515e-08
2.20959e-07
3.27936e-07
-3.6813e-08
5.20943e-09
5.07831e-08
3.47616e-08
-9.78114e-09
3.06167e-08
2.22374e-07
2.69687e-07
1.56723e-07
5.91517e-08
5.35315e-08
5.38178e-08
6.24169e-08
8.02145e-08
-1.27553e-08
-1.00162e-07
-1.03691e-07
4.33103e-08
-1.1762e-08
-6.67001e-08
-1.05013e-07
-3.87614e-08
-6.03671e-10
2.35062e-08
7.0861e-09
8.5716e-08
-1.29868e-07
-1.65557e-07
9.28079e-08
6.06086e-09
8.2246e-08
6.13836e-08
-7.52171e-08
-1.71812e-07
1.91993e-08
6.6117e-08
-3.80174e-07
-3.47103e-08
6.04859e-07
3.95955e-07
1.87813e-08
2.66099e-09
3.91959e-08
6.08927e-09
-1.44791e-08
2.66572e-08
1.60267e-07
2.99045e-07
2.41445e-07
1.06189e-07
3.58103e-08
5.08817e-08
7.67793e-08
7.55003e-08
-9.43642e-09
-1.12081e-07
-1.39189e-07
6.45885e-09
9.31019e-08
1.93429e-08
-8.20132e-08
-3.67554e-08
5.81224e-09
8.50546e-09
1.12559e-08
1.67771e-08
-1.57088e-08
-8.44803e-08
9.12721e-08
3.27659e-08
-1.85514e-09
-6.21e-08
-2.35366e-08
-1.60529e-07
-7.02087e-08
-1.52103e-08
-4.12018e-07
-2.09004e-07
4.14077e-07
3.09718e-07
1.00159e-08
-3.06894e-09
1.71002e-08
-1.2889e-08
-1.62199e-08
4.34175e-08
1.33724e-07
2.82229e-07
2.9063e-07
1.77085e-07
4.75063e-08
2.83366e-08
8.1943e-08
7.99769e-08
-8.4371e-09
-1.51834e-07
-9.51467e-08
6.44491e-08
1.34616e-07
-9.4746e-09
-4.56037e-08
-1.1193e-08
-8.70983e-09
6.52568e-09
2.28418e-09
-1.12604e-07
-1.31497e-07
-3.36215e-08
1.10269e-07
1.06737e-08
4.59625e-08
3.59917e-07
-6.49325e-08
-8.0612e-08
-1.37277e-08
6.33128e-08
-2.45945e-07
-2.41007e-07
2.60608e-07
2.243e-07
7.59805e-08
-4.64544e-09
1.06788e-09
1.04175e-08
-6.17763e-11
2.79808e-08
1.24945e-07
2.47547e-07
2.72921e-07
2.89008e-07
6.40898e-08
-6.63252e-09
6.35214e-08
8.98006e-08
1.3584e-08
-1.01449e-07
-6.44334e-08
8.83969e-08
7.32014e-08
-2.26531e-08
1.34147e-08
1.0218e-10
-4.97248e-09
-1.96633e-09
-7.14433e-09
-1.35534e-07
-2.05226e-07
-2.11362e-08
5.64508e-08
6.11692e-09
-3.50138e-08
3.33688e-07
4.30935e-08
-2.47165e-08
-8.96106e-09
1.06788e-07
6.83926e-08
-1.19686e-08
1.09749e-07
5.626e-08
2.56962e-08
-4.62735e-08
-6.93283e-08
1.45657e-08
3.71036e-08
2.44972e-08
7.36727e-08
2.12427e-07
2.77215e-07
2.95537e-07
-2.26732e-08
-5.16738e-08
1.18003e-08
8.84346e-08
2.57801e-08
-5.46471e-08
-4.44387e-08
4.38572e-08
6.23997e-08
7.20247e-08
9.71883e-09
-6.85327e-09
6.91253e-09
-4.15886e-09
-1.7012e-08
-1.67348e-07
-2.26683e-07
-4.38323e-08
5.67512e-08
1.76388e-08
-2.85946e-08
-1.15623e-07
-1.69973e-08
5.33396e-09
1.41869e-07
1.70703e-07
1.42821e-07
1.04579e-07
6.91012e-08
3.79471e-08
7.09353e-08
1.68609e-08
-1.26461e-07
-2.22066e-08
3.38677e-08
1.03544e-07
8.90084e-09
-2.38346e-08
1.61721e-07
2.43214e-07
7.48406e-10
-2.22593e-08
-7.5961e-08
5.29509e-08
2.83584e-10
-1.76516e-08
-8.65289e-08
-9.14654e-08
6.88701e-09
3.11493e-08
-5.9875e-08
-2.04212e-08
3.09674e-08
2.2766e-08
-2.0976e-08
-1.61873e-07
-2.20711e-07
-6.93374e-08
1.20277e-08
-2.91546e-08
-4.20897e-08
-3.89423e-08
-3.39619e-08
-7.2242e-09
1.06488e-07
4.77319e-08
1.95932e-08
2.63941e-08
4.73658e-08
8.65609e-08
9.70986e-08
1.55846e-08
6.81837e-09
4.96415e-08
-6.73354e-08
9.5338e-08
3.20478e-08
-3.85762e-07
-2.39725e-07
1.23948e-07
1.14235e-07
-1.17998e-07
-1.2301e-07
-1.78709e-09
-2.21598e-08
2.03184e-08
-4.87755e-08
-1.38538e-07
2.43874e-08
2.07926e-08
-5.41643e-08
-2.00252e-08
2.44057e-08
7.67653e-08
3.3144e-08
-7.96814e-08
-1.42706e-07
-1.76198e-08
-2.39131e-08
-3.301e-08
-4.22135e-08
1.17142e-08
7.73289e-09
-1.57274e-08
3.06932e-09
1.57765e-08
-3.11639e-08
-2.08925e-08
2.58086e-08
5.80379e-08
3.62884e-08
-1.33897e-08
5.36744e-08
5.19244e-08
-4.3717e-08
-9.54452e-08
-6.28309e-08
-4.28915e-07
-5.78649e-07
-9.14415e-08
1.07623e-07
-7.53082e-08
-1.25765e-07
-5.26207e-08
-3.51667e-08
-5.90322e-09
5.47332e-10
-2.39255e-08
4.55851e-08
2.98321e-08
1.14322e-09
-1.22472e-08
-4.46597e-08
4.1491e-08
8.50608e-08
4.44629e-08
-9.6785e-09
6.2017e-08
5.12227e-08
-1.07092e-09
-2.51671e-08
1.42361e-08
5.10759e-08
2.32272e-08
6.07139e-09
2.34427e-08
-9.23164e-09
-2.91739e-08
1.40727e-08
4.0044e-08
9.03733e-09
-1.66715e-08
-6.73536e-09
3.86666e-08
-1.13787e-08
-8.4375e-08
1.43147e-07
-5.45788e-08
-3.54925e-07
-2.33286e-07
9.56412e-08
2.24662e-08
-1.1931e-07
-5.9207e-08
1.13454e-08
-2.8904e-08
-3.6378e-08
-1.51522e-08
-1.03531e-08
-8.29383e-10
8.76151e-09
3.98721e-09
-4.1858e-08
-3.42766e-08
6.47237e-08
6.82524e-08
3.5814e-08
7.95088e-08
7.3081e-08
2.52838e-08
4.50337e-09
-3.04378e-09
9.17629e-09
1.76783e-08
4.0156e-09
1.87942e-08
1.99749e-08
9.33091e-09
2.28602e-08
3.51677e-08
1.79181e-08
-8.73059e-09
-3.52498e-09
3.9471e-08
1.77044e-08
-2.74711e-08
4.64027e-08
2.02305e-07
-4.09783e-08
-2.38872e-07
-2.28883e-08
6.2839e-08
8.05856e-09
-2.68436e-08
-1.29726e-08
-7.27961e-09
-2.55832e-08
-2.24517e-08
8.36058e-09
4.72409e-08
4.11068e-08
-2.10059e-09
-4.92228e-08
-2.54284e-08
6.11762e-08
4.54281e-08
4.7509e-08
3.6017e-08
1.28792e-08
4.94224e-09
1.96274e-08
1.42818e-08
-1.10466e-08
-1.34851e-08
-2.21129e-08
-6.46106e-09
1.41572e-08
3.51689e-08
1.55194e-08
-1.006e-08
-4.72155e-08
-2.94804e-08
7.75776e-09
3.2919e-08
1.97258e-08
-2.61099e-09
1.62315e-08
6.9603e-08
6.77676e-08
-4.87868e-08
-3.14442e-08
1.72449e-08
-1.21926e-08
-2.45677e-08
-7.38504e-09
1.14614e-08
1.02847e-08
1.38829e-08
4.05444e-08
5.87136e-08
5.22783e-08
4.72613e-09
-8.55803e-08
-1.3719e-07
-4.88819e-08
-3.52601e-08
-2.18672e-08
3.76588e-08
2.37e-08
-7.05004e-09
-9.58581e-09
-1.55129e-08
-2.83904e-08
-2.91121e-08
-1.64085e-08
1.48086e-08
5.67216e-08
4.66181e-08
2.90228e-08
1.03705e-09
-2.44835e-08
-2.35814e-08
7.70288e-09
2.1734e-08
-1.59941e-09
-1.18851e-09
1.2385e-08
-9.0162e-09
-1.88508e-08
-6.45555e-09
2.06685e-08
1.48538e-08
-2.56668e-08
-3.99952e-08
-2.89374e-08
2.02743e-09
1.01217e-08
7.04207e-09
4.10831e-09
1.68753e-08
1.47754e-08
-3.91237e-09
4.97291e-09
-1.78973e-08
-2.94023e-08
3.02718e-09
2.50554e-09
-2.72721e-09
-2.18046e-08
-1.0342e-08
3.57316e-08
4.6909e-08
1.55754e-08
-2.09819e-08
-8.10068e-09
-1.16871e-09
3.50007e-08
4.79774e-08
1.81549e-08
-2.39293e-09
-5.18401e-09
-2.68935e-09
1.02476e-08
-1.57305e-08
-3.05385e-08
1.95838e-08
8.34149e-08
3.9627e-08
-4.01111e-09
1.59095e-08
4.93621e-08
3.55225e-08
-9.27532e-09
-3.91262e-08
8.71208e-09
2.46237e-08
-6.99578e-09
-2.8231e-08
-2.56711e-08
-1.59191e-08
-1.62286e-08
-2.99765e-09
2.87624e-08
4.82323e-08
-6.70266e-11
-2.30702e-08
2.02549e-08
6.24488e-08
3.48421e-08
-6.53218e-08
-1.50756e-07
-2.07228e-07
-2.23736e-07
4.87828e-08
3.80668e-07
5.14799e-07
4.48852e-07
7.16833e-08
-1.75444e-07
-4.49639e-08
7.85156e-08
5.12245e-09
-9.79044e-08
-6.77407e-08
9.67007e-08
2.68482e-07
3.11675e-07
7.22198e-08
-4.39846e-08
1.0136e-07
-4.34591e-08
-3.70961e-08
1.76689e-08
3.53052e-09
1.23507e-08
4.89303e-08
-9.38674e-09
-8.72838e-08
-8.52093e-08
-4.33032e-08
-5.24431e-08
-1.47624e-08
6.8021e-08
9.05029e-08
-1.19816e-08
-4.96147e-08
3.50405e-08
1.18883e-07
6.84322e-08
-1.60931e-07
-4.07946e-07
-5.82148e-07
-5.99019e-07
6.11144e-08
8.16983e-07
8.43632e-07
6.56213e-07
1.59173e-07
-5.14664e-07
-5.54286e-07
-1.96465e-07
-6.46354e-08
-1.59709e-07
-1.08335e-07
1.84191e-07
5.20528e-07
6.6767e-07
1.57464e-07
-3.14812e-07
4.19055e-08
-1.03783e-07
-2.23028e-07
-4.34289e-08
-5.27493e-08
1.84654e-08
6.59094e-08
-7.51116e-09
-9.72251e-08
-9.00305e-08
-3.01843e-08
-4.27337e-08
-1.75543e-08
6.37775e-08
7.45464e-08
-1.9287e-08
-5.60344e-08
3.09878e-08
1.00229e-07
5.47947e-08
-1.47855e-07
-3.73794e-07
-4.95586e-07
-4.4508e-07
2.78252e-08
6.64936e-07
4.94986e-07
2.42123e-07
1.1995e-07
-3.39176e-07
-4.7354e-07
-2.52703e-07
-6.00533e-08
-5.83341e-08
-2.7732e-08
1.46722e-07
3.83407e-07
5.03542e-07
1.28559e-07
-2.68918e-07
-3.17038e-08
-6.13366e-08
-2.96458e-07
-8.84679e-08
-9.00362e-08
2.76892e-09
8.32583e-08
1.2671e-08
-6.12834e-08
-6.43733e-08
-1.68494e-08
-1.00252e-08
-2.75772e-09
1.02654e-08
2.44279e-10
-1.54547e-08
-5.90517e-08
1.18877e-08
6.28131e-08
2.84049e-08
-1.15372e-07
-2.60413e-07
-2.85982e-07
-1.37853e-07
7.25776e-09
2.61883e-07
-1.16927e-07
-3.01792e-07
5.05191e-08
6.90187e-09
-9.43603e-08
-1.28343e-07
-3.86802e-08
3.38044e-08
8.69229e-08
1.4208e-07
2.25297e-07
2.51046e-07
8.09879e-08
-4.28665e-08
1.09175e-07
-6.69824e-08
-3.40023e-07
-9.09563e-08
-1.07221e-07
-5.25869e-08
1.20697e-07
5.12166e-08
-4.47958e-08
-5.31629e-08
-8.97405e-09
1.08128e-08
5.69285e-09
-3.02672e-08
-5.5232e-08
-2.08764e-08
-5.70343e-08
-7.19782e-09
5.46511e-08
2.08993e-08
-1.07404e-07
-2.41679e-07
-1.94196e-07
1.85495e-08
-6.87434e-09
-4.9432e-08
-4.98847e-07
-6.43483e-07
-1.78644e-08
1.61697e-07
8.39288e-08
-8.06459e-08
-3.98407e-08
4.10747e-08
1.11117e-07
1.50378e-07
1.66423e-07
1.4612e-07
5.73107e-08
5.36118e-08
1.70266e-07
-8.21162e-08
-4.03574e-07
-7.12983e-08
-9.52585e-08
-1.5986e-07
1.73011e-07
1.21833e-07
-8.54348e-08
-6.93704e-08
-1.30252e-08
2.46059e-08
1.0325e-08
-4.38264e-08
-9.47064e-08
-2.78105e-08
-1.00599e-08
-1.89731e-08
5.87634e-08
5.03218e-08
-9.92386e-08
-2.5821e-07
-1.70708e-07
2.05605e-08
9.81101e-09
-2.30346e-07
-6.89597e-07
-8.37903e-07
-1.54985e-07
2.56469e-07
1.51591e-07
-1.00375e-07
-5.93455e-08
5.02481e-09
6.82608e-08
1.5221e-07
1.86041e-07
1.38115e-07
4.15881e-08
7.77253e-08
1.62622e-07
-5.83862e-08
-3.71084e-07
-2.35329e-08
-1.4355e-08
-2.68625e-07
1.48262e-07
2.07679e-07
-1.59563e-07
-1.15719e-07
-4.67292e-08
2.7313e-08
9.59575e-09
-7.46698e-08
-1.99113e-07
-4.62821e-08
9.90489e-08
-1.66688e-09
2.65064e-08
9.83109e-08
-2.56881e-08
-1.88287e-07
-1.18166e-07
-2.22495e-08
1.15289e-08
-3.1124e-07
-9.31535e-07
-1.00814e-06
-3.48539e-07
3.15054e-07
2.06933e-07
-1.24061e-07
-8.25011e-08
-2.754e-08
1.62852e-08
1.39717e-07
2.37681e-07
1.91126e-07
2.96095e-08
5.92159e-08
1.90491e-07
7.701e-09
-3.08443e-07
2.44398e-08
1.32486e-07
-3.2968e-07
-1.42938e-07
2.52972e-07
-1.94008e-07
-1.90077e-07
-4.35136e-08
-1.17611e-08
2.75383e-09
-8.05621e-08
-3.20408e-07
-2.11519e-07
2.08083e-07
1.17252e-07
-2.50664e-08
1.26417e-07
9.76087e-08
-5.33148e-08
-6.33936e-08
-7.0627e-08
-1.10923e-08
-2.95698e-07
-1.20108e-06
-1.2631e-06
-4.16248e-07
2.51421e-07
1.79306e-07
-1.32856e-07
-9.62158e-08
-3.5337e-08
1.99201e-08
1.36051e-07
2.81942e-07
2.75793e-07
5.41849e-08
-8.94891e-09
1.65332e-07
8.71771e-08
-1.96734e-07
3.97181e-08
2.63019e-07
-3.59019e-07
-6.24927e-07
2.59148e-07
-1.40748e-07
-2.67041e-07
-2.48156e-08
-3.21848e-08
6.6623e-09
-2.91978e-08
-3.16252e-07
-4.68611e-07
1.45487e-08
2.5356e-07
-7.60396e-08
1.42895e-07
2.35853e-07
6.86433e-08
-7.34981e-08
-1.7053e-07
-1.68827e-08
-2.29929e-07
-1.35853e-06
-1.55793e-06
-4.62555e-07
3.29708e-07
1.26848e-07
-1.22508e-07
-1.0548e-07
-3.86764e-08
1.45142e-08
1.20458e-07
2.92857e-07
3.42755e-07
1.28771e-07
-3.66798e-08
9.82869e-08
8.62297e-08
-1.07903e-07
6.27496e-08
3.29553e-07
-2.20259e-07
-1.07074e-06
8.40126e-08
-2.6491e-08
-4.4638e-07
-6.52643e-08
-2.0747e-08
1.29354e-08
4.82272e-08
-1.80603e-07
-4.7127e-07
-3.97254e-07
2.57845e-07
-1.73171e-07
6.63078e-08
2.69797e-07
1.17504e-07
-1.47091e-07
-2.78253e-07
-6.5956e-11
-1.24869e-07
-1.33368e-06
-1.78564e-06
-5.25457e-07
3.48284e-07
1.1768e-07
-8.79194e-08
-1.07063e-07
-4.3766e-08
7.15946e-09
8.579e-08
2.68434e-07
3.80462e-07
2.01627e-07
7.43271e-09
5.11029e-08
7.72978e-08
-4.13364e-08
7.02974e-08
2.94756e-07
-1.26165e-07
-1.52149e-06
-2.28483e-07
3.18826e-08
-6.43616e-07
-1.46848e-07
-1.74322e-09
1.03327e-08
5.60059e-08
-8.57921e-08
-3.09012e-07
-4.29539e-07
-7.6617e-08
-2.15437e-08
1.98986e-08
2.69429e-07
1.7622e-07
-1.4994e-07
-3.16326e-07
5.03821e-08
5.01247e-08
-1.12846e-06
-1.78341e-06
-6.02786e-07
2.51857e-07
2.40024e-07
-3.71171e-08
-1.06044e-07
-4.56083e-08
2.16501e-09
3.36529e-08
2.1178e-07
3.63588e-07
2.46964e-07
8.06563e-08
4.42302e-08
6.38476e-08
-3.01095e-09
6.99216e-08
2.83311e-07
-1.19732e-09
-1.52784e-06
-4.76587e-07
1.49949e-07
-5.1308e-07
-1.11326e-07
2.74839e-08
7.88666e-09
3.98654e-08
-5.74326e-08
-2.06793e-07
-2.75512e-07
-1.34358e-07
5.30858e-08
7.1467e-08
2.80715e-07
3.28149e-07
-1.03886e-08
-2.58981e-07
9.50966e-08
2.52607e-07
-8.12073e-07
-1.55403e-06
-5.67224e-07
2.18176e-07
3.38215e-07
-1.81762e-08
-9.35754e-08
-3.90009e-08
-1.24999e-08
-1.92212e-08
1.11004e-07
2.88732e-07
3.14205e-07
1.67685e-07
4.84139e-08
6.00303e-08
1.87991e-08
6.08733e-08
2.21794e-07
5.55094e-08
-9.28924e-07
-2.90821e-07
3.10397e-07
-3.55539e-07
-4.51411e-08
3.25993e-08
1.31141e-08
1.06677e-08
1.60957e-08
-1.65837e-07
-1.99016e-07
-1.09086e-07
4.19588e-08
1.28647e-07
6.02452e-08
4.06641e-07
1.51758e-07
-1.39257e-07
7.11293e-08
4.01501e-07
-3.48501e-07
-1.155e-06
-4.5492e-07
2.67439e-07
2.12539e-07
6.01937e-09
-7.22396e-08
-3.24464e-08
-2.45536e-08
-5.02646e-08
3.93809e-08
1.64623e-07
2.90236e-07
2.69933e-07
6.09996e-08
2.46505e-08
3.18794e-08
5.25813e-08
1.58057e-07
1.45559e-08
-4.5733e-07
-1.13098e-07
2.73309e-07
-2.01262e-07
-5.89494e-08
-9.98332e-09
5.86255e-09
4.11687e-09
3.59474e-09
-1.29727e-07
-2.95005e-07
-1.21661e-07
2.22182e-08
1.2116e-07
2.53256e-08
2.89442e-07
1.81139e-07
-1.27518e-08
-3.91932e-09
3.30627e-07
2.39778e-08
-7.14528e-07
-3.33667e-07
2.11719e-07
1.88095e-07
1.68367e-08
-8.36436e-08
-3.90966e-08
-5.01607e-08
-6.4247e-08
1.63462e-08
3.95067e-08
1.65572e-07
3.61761e-07
1.35037e-07
-6.16519e-08
1.40275e-08
4.3677e-08
8.54298e-08
-5.10856e-08
-2.33217e-07
-2.15251e-08
2.27853e-07
1.42154e-08
-5.47026e-08
-1.86575e-08
3.55935e-09
8.18271e-09
-4.68301e-09
-1.44373e-07
-4.10048e-07
-2.14885e-07
-3.18488e-08
1.29526e-07
1.31695e-07
1.2311e-07
9.42022e-08
6.67824e-08
-3.65993e-08
8.99666e-08
8.92939e-08
-5.24605e-07
-3.5533e-07
1.18441e-07
1.0823e-07
-1.14998e-07
-6.56207e-08
-3.45523e-08
-3.57767e-08
-3.69033e-08
2.78936e-08
-1.52516e-08
-2.27486e-08
2.9734e-07
2.58031e-07
-1.17857e-07
-4.87846e-08
3.54929e-08
3.47461e-08
-7.60742e-08
-1.62436e-07
3.41587e-08
1.89203e-07
8.12601e-08
-3.12619e-08
-4.44937e-09
4.15193e-09
1.24249e-09
-6.79267e-10
-1.57044e-07
-4.45489e-07
-2.80558e-07
-2.87069e-08
2.11853e-07
-1.87045e-08
1.20967e-08
1.01756e-07
7.20946e-08
-2.51817e-08
-8.04533e-09
4.63397e-08
-3.7801e-07
-3.48614e-07
6.38026e-08
-3.65883e-08
-1.71719e-07
-6.24715e-08
5.11501e-09
2.62926e-08
2.01114e-08
1.77564e-08
2.44073e-08
-7.6614e-08
1.47103e-07
4.47806e-07
-1.13275e-07
-1.27145e-07
1.22235e-08
1.56429e-08
-6.64303e-08
-1.16249e-07
4.41322e-08
1.58795e-07
6.0422e-08
-2.85996e-09
1.60163e-09
4.90572e-09
9.08984e-10
-5.40243e-09
-1.48264e-07
-5.30819e-07
-4.08357e-07
8.46406e-08
5.94119e-08
-6.19458e-08
-2.25101e-08
1.64889e-07
9.39926e-08
3.05935e-09
-2.45302e-08
1.10378e-07
-6.45914e-08
-7.38722e-08
9.25756e-08
-1.65262e-07
-1.66693e-07
-2.37646e-08
-3.12411e-08
-3.84815e-08
1.34625e-08
-4.26067e-08
-2.98486e-09
3.98825e-08
-7.32666e-09
2.38539e-07
9.55778e-08
-1.61636e-07
-4.78279e-08
1.88525e-08
-1.67916e-08
-4.1622e-08
6.62493e-08
1.13116e-07
2.3411e-08
-1.31833e-10
2.61791e-09
-1.02353e-08
8.00388e-09
5.96496e-09
-9.74746e-08
-4.89954e-07
-5.07865e-07
3.3929e-09
-6.59773e-08
-1.59602e-07
-5.31787e-08
7.17739e-08
4.06464e-08
1.25329e-08
-2.80422e-08
5.05808e-08
1.3704e-07
1.70983e-07
1.52504e-07
-7.42374e-08
-1.25275e-07
-4.60117e-09
-1.06658e-07
-7.76749e-08
9.33922e-08
8.68569e-09
-1.66566e-07
2.80245e-09
-3.50055e-08
5.10018e-08
1.86101e-07
-3.35989e-07
-1.87002e-07
1.48385e-08
2.84217e-08
3.51228e-08
5.48891e-08
2.23366e-08
-1.69763e-08
5.80495e-09
-1.94632e-08
-4.23106e-08
2.31876e-09
5.14758e-08
3.77971e-09
-2.63522e-07
-3.69157e-07
-8.53692e-08
-9.1127e-08
-1.44488e-07
-6.37249e-08
3.81798e-09
-1.7292e-08
1.15968e-08
4.7519e-09
1.66551e-08
1.20669e-07
1.4202e-07
8.43559e-08
4.96778e-08
7.68993e-08
3.71378e-08
-3.21137e-08
7.8651e-09
2.7794e-08
-1.99672e-08
-2.95831e-07
-4.35846e-07
-1.46905e-07
-5.43659e-08
7.39493e-08
-1.54184e-07
-1.36873e-07
-7.19471e-09
1.10395e-08
4.52268e-08
3.96032e-08
-1.60393e-08
-2.04463e-09
2.90909e-08
-2.47679e-08
-4.39352e-08
-5.59578e-09
6.41914e-08
4.80226e-08
-1.16559e-07
-1.55745e-07
-1.11886e-08
-5.11569e-09
-3.9719e-08
-2.63546e-08
-8.5554e-09
-1.40368e-08
-4.07941e-09
1.07183e-08
1.2914e-08
2.29689e-08
4.23747e-08
3.04587e-08
5.92861e-08
9.66686e-08
1.75662e-08
1.81831e-08
4.03719e-10
-7.06247e-08
-4.21055e-08
-4.66246e-07
-6.48813e-07
-5.62515e-07
-7.50979e-08
-2.05566e-08
-1.45051e-07
-1.70588e-07
-6.09854e-08
-2.01602e-08
-1.97952e-09
5.63742e-10
-4.10411e-09
1.82261e-08
1.12984e-08
-1.20345e-08
-1.92555e-08
-1.48069e-08
3.20202e-08
5.16767e-08
-5.75823e-08
-1.03e-07
4.38806e-08
1.40843e-07
3.21633e-08
-2.12081e-08
-1.66608e-09
3.37962e-08
2.22549e-08
1.06282e-08
1.15432e-08
-5.38197e-09
1.83797e-10
3.66188e-08
7.20476e-08
5.66626e-08
6.86907e-09
2.95693e-08
1.49393e-08
-5.06022e-08
-2.43256e-08
-2.40566e-08
-3.93432e-07
-6.86527e-07
-2.25456e-07
-3.7283e-09
-1.7423e-07
-1.77316e-07
-3.6074e-08
-8.03879e-09
-2.61763e-08
-3.27529e-08
1.1608e-08
1.32853e-08
-2.46957e-08
-1.92656e-08
2.28769e-09
-1.35006e-08
2.24878e-08
5.72524e-08
-8.0354e-09
-7.04202e-08
5.01949e-08
1.67058e-07
8.12227e-08
-7.57742e-10
6.47511e-09
2.62457e-08
9.43716e-09
-1.00256e-08
6.00347e-10
1.08626e-08
5.55215e-09
2.79052e-08
2.69899e-08
-2.99853e-08
-1.1917e-08
3.14068e-08
4.30428e-08
-9.44531e-09
-6.83497e-09
1.28928e-07
9.8396e-08
-2.57305e-07
-2.00178e-07
3.02089e-08
2.2533e-08
-1.00759e-07
-6.619e-08
6.44134e-10
-6.92682e-09
-3.38543e-08
-1.5932e-08
-3.22822e-09
-1.07321e-08
3.98708e-09
9.54026e-09
-3.00185e-08
-5.20022e-08
-1.68668e-08
-1.46264e-08
-2.73803e-08
9.46355e-09
4.14226e-08
3.10643e-09
-1.16872e-08
2.20898e-08
3.22406e-08
2.22214e-08
8.62662e-09
3.2065e-09
1.0709e-09
-2.72128e-09
-1.87489e-09
-1.74091e-08
-4.61485e-08
-2.42512e-08
1.68709e-08
4.2416e-08
1.87169e-08
1.83513e-09
4.11862e-08
1.00577e-07
3.14924e-08
-2.5164e-08
5.46154e-08
4.89534e-08
1.53477e-08
-2.81168e-08
-2.9466e-08
-1.95246e-09
1.3132e-09
2.26517e-09
3.34236e-09
1.88898e-08
3.79587e-08
2.65604e-08
-1.81172e-08
-5.19606e-08
-7.1643e-08
-8.11409e-08
-5.39084e-08
3.55965e-08
5.39365e-08
1.19117e-08
-8.32477e-09
-1.21374e-08
-1.5355e-08
-2.62356e-09
2.23412e-08
2.30971e-08
2.69688e-08
1.82392e-08
1.06234e-08
-6.23106e-10
-1.8573e-08
-2.85832e-08
-1.84919e-08
1.77552e-08
1.84474e-08
-5.1124e-09
-3.93303e-08
-3.50588e-09
2.58812e-08
1.982e-08
5.62126e-08
4.95673e-08
-2.24482e-08
-5.25566e-08
-5.36448e-08
-9.55804e-09
1.53256e-08
5.30204e-09
4.98908e-09
2.65107e-08
2.61595e-08
1.28968e-08
1.03416e-08
-1.58861e-09
7.52972e-09
-1.14394e-09
-6.90724e-09
2.00659e-08
2.75569e-08
4.02545e-09
-7.78399e-09
6.68384e-09
6.60915e-09
-1.47464e-08
-8.29847e-09
3.06646e-08
9.63251e-09
-1.4933e-08
-1.03348e-08
-5.04945e-09
-6.60496e-09
-9.4628e-09
9.95044e-09
8.23999e-09
-8.83558e-09
2.5582e-08
2.93236e-08
-3.40756e-08
-2.33613e-08
2.73677e-08
5.75592e-08
5.61063e-08
5.30363e-09
-5.05279e-08
9.15951e-08
2.47308e-09
-2.98913e-08
-4.39932e-08
-6.69479e-09
5.38062e-08
5.87443e-08
4.34571e-08
1.63093e-08
-1.672e-08
-1.42451e-08
1.69687e-08
5.62108e-08
8.23925e-08
6.60839e-08
1.82566e-08
6.53465e-09
-9.50411e-08
-2.5344e-07
-1.46875e-07
2.1902e-07
3.18322e-07
2.25026e-07
2.36624e-08
-1.16443e-07
-6.27645e-08
-4.46983e-08
-9.74221e-08
-1.17299e-07
-6.39744e-08
9.5762e-08
2.40155e-07
1.99586e-07
2.19418e-08
-7.688e-09
6.84091e-08
8.81529e-09
-5.87262e-09
5.41233e-09
3.53776e-08
9.16108e-08
-4.2321e-08
-1.16461e-07
-2.31868e-07
-9.80292e-08
1.1886e-07
1.35969e-07
6.60224e-08
-3.59899e-09
-2.47237e-08
-5.12588e-09
3.7804e-08
1.19201e-07
1.66984e-07
1.15745e-07
-2.89464e-09
-9.04982e-08
-3.94533e-07
-8.15106e-07
-4.64849e-07
5.86357e-07
7.54401e-07
2.81308e-07
-1.08263e-07
-3.37031e-07
-3.07118e-07
-2.69671e-07
-2.8673e-07
-2.64964e-07
-1.31634e-07
2.21838e-07
5.73934e-07
5.13593e-07
9.21772e-08
-1.05359e-07
5.75919e-08
-1.40225e-08
-2.24144e-08
4.28861e-08
5.7796e-08
3.21009e-08
-5.21322e-08
-9.68429e-08
-2.37987e-07
-1.35078e-07
1.06183e-07
1.33633e-07
5.23481e-08
-2.75473e-08
-1.42938e-08
3.12329e-08
6.13517e-08
1.16237e-07
1.57587e-07
1.03483e-07
-2.14559e-08
-1.0973e-07
-3.41835e-07
-6.84402e-07
-3.99894e-07
5.44111e-07
7.49386e-07
2.12318e-07
-1.73608e-07
-3.35432e-07
-3.36008e-07
-3.00997e-07
-2.64702e-07
-1.89099e-07
-7.82542e-08
1.76266e-07
4.60832e-07
4.32885e-07
1.09229e-07
-8.88663e-08
1.55036e-08
-1.84737e-08
-3.68526e-08
6.89563e-08
1.1663e-08
-9.8283e-08
-3.03786e-08
2.81717e-09
-1.42409e-07
-1.39949e-07
5.8625e-08
1.00269e-07
2.60436e-08
-3.71725e-08
2.06529e-09
4.68256e-08
4.73728e-08
7.80785e-08
1.06485e-07
6.93229e-08
-1.32935e-08
-4.13843e-08
-1.03058e-07
-2.71852e-07
-2.01652e-07
2.85319e-07
2.97941e-07
-1.19892e-07
-2.48072e-07
-2.19841e-07
-1.459e-07
-1.20107e-07
-1.09049e-07
-2.47272e-08
3.3414e-08
1.23488e-07
2.48065e-07
2.13406e-07
5.13042e-08
5.30249e-10
7.51596e-08
-3.05371e-08
-2.5704e-08
1.32003e-07
-7.96252e-08
-3.03874e-07
-4.51262e-08
1.04317e-07
-7.07809e-08
-1.474e-07
3.05436e-08
8.91056e-08
1.46485e-08
-5.42147e-08
1.03088e-08
6.97181e-08
4.14438e-08
6.73337e-08
1.00657e-07
6.3501e-08
4.9045e-09
1.0805e-08
5.02611e-08
-3.09321e-08
-1.0775e-07
1.54249e-07
3.62818e-08
-3.21199e-07
-2.96962e-07
-1.36003e-07
-5.04802e-08
-2.79856e-08
-4.33916e-08
4.2319e-08
9.37312e-08
1.1237e-07
1.66794e-07
1.33807e-07
2.63945e-08
2.33173e-08
8.65862e-08
-5.51762e-08
-6.68096e-09
2.4499e-07
-1.61776e-07
-7.21456e-07
-6.63173e-08
2.01999e-07
-4.54916e-08
-1.51459e-07
3.04596e-08
1.02116e-07
9.26216e-09
-6.34755e-08
2.47341e-08
1.05346e-07
7.73188e-08
9.30424e-08
1.32997e-07
8.29566e-08
3.09701e-08
4.17357e-08
1.41136e-07
9.53168e-08
-9.14697e-08
1.32987e-07
-3.95043e-08
-2.90943e-07
-2.95999e-07
-1.04569e-07
-5.6163e-08
-6.22351e-08
-7.98157e-08
1.89577e-08
8.49936e-08
1.17587e-07
1.69469e-07
1.51148e-07
4.03175e-08
1.2777e-08
6.59722e-08
-6.27768e-08
-9.67854e-09
3.68453e-07
-1.86181e-07
-1.38381e-06
-2.33488e-07
2.3915e-07
-3.80757e-08
-1.52178e-07
4.85528e-08
1.28481e-07
2.22625e-08
-5.79947e-08
4.12222e-08
1.50631e-07
1.23215e-07
1.26979e-07
1.64253e-07
1.15231e-07
6.36731e-08
6.86821e-08
1.92681e-07
1.66948e-07
-5.46582e-08
7.16997e-08
-2.50544e-07
-5.08695e-07
-2.93104e-07
-7.79878e-08
-4.58494e-08
-1.08953e-07
-1.29233e-07
-2.69282e-08
8.73475e-08
1.07175e-07
2.10283e-07
2.14971e-07
7.22528e-08
1.99043e-09
5.1362e-08
-4.88292e-08
6.5214e-09
4.48907e-07
-1.45517e-07
-1.95149e-06
-7.66171e-07
3.74347e-07
4.813e-09
-1.62812e-07
6.20551e-08
1.78576e-07
5.44896e-08
-1.78535e-08
3.21624e-08
1.58915e-07
1.81089e-07
1.82624e-07
1.9763e-07
1.58536e-07
6.79545e-08
7.19364e-08
2.1433e-07
1.37238e-07
-6.11282e-08
-5.5069e-09
-6.01299e-07
-8.97723e-07
-3.86313e-07
-8.57193e-08
-3.64292e-08
-1.25559e-07
-1.50749e-07
-7.92001e-08
5.95478e-08
1.44378e-07
2.67102e-07
3.09718e-07
1.43057e-07
6.08817e-10
3.91778e-08
-5.65671e-09
6.30683e-09
4.14564e-07
-2.57962e-08
-2.30601e-06
-1.54861e-06
6.25286e-07
8.13766e-08
-1.93396e-07
8.08704e-08
2.19248e-07
1.04655e-07
2.92398e-08
1.91427e-08
1.03704e-07
2.093e-07
2.80877e-07
1.68371e-07
1.46311e-07
3.38226e-08
5.77381e-08
2.18617e-07
6.48226e-08
-1.29145e-07
-6.10993e-08
-9.28183e-07
-1.35712e-06
-4.85003e-07
-6.53525e-08
-1.95189e-08
-9.95452e-08
-1.41037e-07
-8.67364e-08
-2.40079e-08
1.31536e-07
3.0173e-07
3.90649e-07
2.39838e-07
4.51023e-08
2.79784e-08
1.92233e-08
9.47094e-09