/*--------------------------------*- C++ -*----------------------------------*\
| =========                 |                                                 |
| \\      /  F ield         | OpenFOAM: The Open Source CFD Toolbox           |
|  \\    /   O peration     | Version:  5.0                                   |
|   \\  /    A nd           | Web:      www.OpenFOAM.org                      |
|    \\/     M anipulation  |                                                 |
\*---------------------------------------------------------------------------*/
FoamFile
{
    version     2.0;
    format      ascii;
    class       volScalarField;
    location    "50.4676134421789371";
    object      prodww;
}
// * * * * * * * * * * * * * * * * * * * * * * * * * * * * * * * * * * * * * //

dimensions      [0 2 -3 0 0 0 0];

internalField   nonuniform List<scalar> 
60000
(
-1.58243e-09
-2.13862e-09
-1.38337e-09
-1.35e-10
2.01199e-10
-9.11618e-11
-2.24599e-11
2.17611e-10
4.63538e-11
-4.9234e-10
-6.12021e-10
-6.72845e-10
-3.28126e-10
-1.21601e-10
9.86486e-11
8.00025e-11
-7.14073e-10
-8.17322e-10
7.00468e-10
4.76131e-09
8.22884e-09
1.92232e-09
-4.35889e-09
-7.57552e-09
-4.59311e-09
-4.52626e-10
-1.45051e-09
-5.73016e-09
-5.52108e-09
-7.33463e-10
-9.807e-10
-4.74285e-09
-8.35514e-09
-1.11063e-08
-1.02417e-08
-3.38568e-09
-7.05678e-10
-3.30391e-10
-1.20886e-09
-1.13649e-09
-1.65253e-08
-7.84815e-09
-1.14341e-09
2.13286e-10
-1.00791e-09
-3.91329e-09
-3.04215e-09
1.58062e-10
-3.80692e-09
-1.3502e-08
-1.96352e-08
-1.33986e-08
-1.75248e-09
-6.62783e-10
-5.45327e-09
-1.64956e-08
-3.11501e-08
-3.94456e-08
-4.46568e-08
-2.62226e-08
1.80106e-09
-1.4905e-08
-4.53837e-08
-5.49315e-08
-9.08886e-09
2.32217e-08
1.72278e-08
5.80719e-09
-4.15173e-09
1.71218e-10
-1.04159e-08
-4.56594e-08
-6.89657e-08
-7.92467e-08
-7.52766e-08
-3.58406e-08
-1.17761e-09
-1.12377e-08
-2.94146e-08
-2.52845e-08
-3.11111e-08
-1.05337e-08
-7.15351e-10
-9.93135e-10
-4.79289e-09
-9.83092e-09
-9.16217e-09
-8.93043e-10
-4.40199e-09
-2.17976e-08
-3.48122e-08
-2.65816e-08
-7.39172e-09
-1.49038e-10
-1.01513e-08
-3.72812e-08
-6.8416e-08
-7.46965e-08
-6.39753e-08
-3.39795e-08
-9.57506e-10
5.03344e-08
1.04161e-07
2.62307e-08
2.55467e-08
3.55847e-08
-2.43763e-10
-8.44904e-09
-1.22746e-09
-1.43488e-10
-4.51186e-09
-2.67918e-08
-5.36927e-08
-6.61151e-08
-6.31403e-08
-4.13826e-08
-8.26881e-09
-4.66547e-09
-4.48409e-08
-5.62212e-08
-3.19634e-08
-6.23145e-09
-5.23537e-10
-1.10183e-09
-4.16382e-09
-7.61908e-09
-9.22529e-09
-2.91954e-09
-5.10351e-10
-1.55342e-08
-2.75931e-08
-1.63449e-08
-6.37672e-09
1.11069e-11
-5.02449e-09
-3.42043e-08
-7.27815e-08
-7.6313e-08
-5.45917e-08
-1.74611e-08
-3.96652e-10
1.27287e-07
4.16758e-07
2.38792e-07
6.81172e-08
2.46122e-08
-2.77725e-08
-3.48345e-08
-1.29567e-08
-1.70349e-09
-7.1696e-10
-6.58999e-09
-1.95542e-08
-2.8614e-08
-2.79527e-08
-2.14948e-08
-1.09675e-08
-1.0521e-10
-2.0745e-08
-5.50544e-08
-3.42048e-08
5.85587e-09
3.12655e-09
-2.08049e-10
-2.16632e-09
-3.2917e-09
-3.75665e-09
-2.40116e-09
-5.12322e-10
-1.07288e-08
-3.28456e-08
-4.70092e-09
7.18967e-09
-4.51243e-10
4.6733e-09
-1.27529e-08
-5.2251e-08
-5.4479e-08
-3.50573e-08
-9.51273e-10
3.23586e-09
1.16035e-07
6.14255e-07
4.05977e-07
6.48642e-08
1.18898e-08
-2.20232e-08
-4.02443e-08
-2.49958e-08
-7.69453e-09
-9.47753e-10
-3.20207e-10
-3.13706e-09
-6.33593e-09
-1.61559e-09
2.4823e-09
-7.12632e-09
-5.63214e-09
-1.44119e-09
-3.04999e-08
-2.24889e-08
5.91568e-09
1.04098e-08
-4.52985e-10
3.01639e-11
-1.50739e-09
-1.56982e-09
-2.02527e-09
-2.97257e-09
-1.4245e-09
-2.56664e-08
1.0591e-08
5.01546e-08
1.09211e-08
1.15578e-08
4.57382e-08
1.87117e-08
-8.63815e-09
-1.10257e-08
4.45908e-09
1.58539e-08
5.35255e-08
5.58728e-07
3.72519e-07
-5.75647e-08
-3.25834e-08
3.59984e-09
-2.47104e-08
-3.07997e-08
-1.99266e-08
-8.51738e-09
-2.13359e-09
1.04636e-10
1.71364e-09
9.69855e-09
2.41805e-08
9.52668e-09
-1.29847e-08
-5.62723e-09
-2.50612e-09
-1.94231e-09
3.49961e-11
1.08179e-08
-4.98437e-09
-7.14625e-10
2.43997e-10
-1.40338e-09
-3.19324e-09
-4.76779e-09
-3.67233e-10
4.08529e-10
5.88866e-08
1.47195e-07
6.28358e-08
1.22662e-08
1.83718e-07
2.01265e-07
5.80839e-08
1.53193e-09
-3.62179e-09
1.30233e-08
1.11765e-08
3.52254e-07
1.82584e-07
-2.54151e-07
-9.05437e-08
2.06059e-08
-4.01442e-09
-2.31208e-08
-2.22757e-08
-1.20772e-08
-3.55979e-09
-2.70116e-10
1.16094e-09
7.31305e-09
2.56166e-08
2.86358e-08
-2.10468e-09
-1.64694e-08
-4.88419e-09
-3.61598e-10
1.22995e-09
4.56233e-09
-8.7456e-09
-6.14954e-09
-9.53555e-11
-6.25101e-10
-3.89011e-09
-7.36447e-09
-2.51297e-10
2.92852e-09
7.74921e-08
2.14461e-07
1.04084e-07
8.14754e-09
3.5946e-07
3.8043e-07
1.05246e-07
2.14367e-09
6.8533e-10
-3.2067e-09
4.52216e-09
1.86466e-07
-2.07288e-08
-4.02837e-07
-1.35924e-07
6.85403e-09
4.27979e-09
-1.33694e-08
-1.69921e-08
-7.88595e-09
2.35184e-10
9.46982e-10
-7.37581e-10
1.41348e-09
1.32882e-08
2.62473e-08
1.46046e-08
-4.86817e-09
-7.06439e-09
1.32785e-08
8.00569e-11
6.48425e-09
-3.47309e-09
-6.77903e-09
-1.16913e-09
-5.07815e-12
-2.99324e-09
-8.52831e-09
-2.08e-09
-7.48133e-10
4.30595e-08
1.3101e-07
3.01162e-08
1.20507e-08
3.56036e-07
3.10941e-07
8.08631e-08
5.63559e-10
1.16534e-08
4.73242e-09
1.01134e-08
9.65109e-08
-1.69425e-07
-4.33143e-07
-1.77692e-07
-2.87692e-08
1.94245e-09
-7.11229e-09
-1.00624e-08
-2.3217e-09
2.54276e-09
6.66857e-10
-3.08575e-09
-2.29502e-09
4.86276e-09
1.52219e-08
1.6822e-08
1.2754e-08
1.53111e-08
4.46651e-08
9.30761e-09
5.45062e-09
5.55328e-09
-2.72963e-09
-4.02422e-10
-8.3918e-11
-2.72737e-09
-6.97274e-09
-4.13326e-09
-1.18636e-09
1.45228e-08
3.2678e-08
-2.62657e-08
2.04358e-08
1.6847e-07
1.11658e-07
2.26683e-08
2.25606e-10
1.44767e-09
7.04574e-09
9.28908e-09
3.9645e-08
-1.59531e-07
-3.36851e-07
-2.05258e-07
-5.00379e-08
-7.49627e-10
-3.58776e-09
-4.81356e-09
8.05071e-10
3.88416e-09
1.38718e-09
-4.47366e-09
-5.3627e-09
1.29703e-09
8.14312e-09
1.22345e-08
1.76439e-08
3.31114e-08
5.56737e-08
2.62853e-08
3.0581e-09
1.79086e-08
8.56942e-09
2.48859e-09
-8.87041e-10
-2.00833e-09
-6.16756e-09
-3.69319e-09
-1.03555e-09
7.76159e-10
4.99498e-09
6.33501e-10
3.08488e-09
6.0401e-10
-1.37388e-08
-1.32722e-08
-4.5944e-10
-6.97625e-09
-1.2239e-08
-1.7188e-09
1.00221e-08
-5.51794e-08
-1.82951e-07
-1.49e-07
-2.81723e-08
3.13262e-10
-1.01886e-09
-1.40376e-09
2.03677e-09
9.55128e-09
1.25098e-08
5.29308e-09
-3.16458e-09
-6.22651e-10
4.44474e-09
6.35896e-09
1.06846e-08
2.64138e-08
3.28436e-08
2.80894e-08
1.3165e-09
2.63673e-08
1.62109e-08
3.78194e-09
-1.82649e-10
2.0375e-09
1.3744e-09
-6.56582e-11
-7.71674e-10
-7.12698e-09
-7.79814e-09
8.33825e-09
-6.02058e-09
-6.05122e-08
-5.77074e-08
-9.14341e-09
4.10474e-09
8.85485e-09
2.39609e-08
6.08106e-09
-1.66109e-09
-6.01547e-09
-6.2014e-08
-4.05537e-08
7.41064e-09
1.25776e-09
1.89674e-09
2.15407e-09
5.3648e-10
9.05855e-09
2.27334e-08
2.52329e-08
9.26257e-09
-5.29157e-10
2.13383e-09
2.49148e-09
1.47887e-09
6.34174e-09
1.49174e-08
2.11651e-08
-9.01656e-10
1.59611e-08
7.75511e-09
-2.67268e-10
-1.95678e-10
2.44649e-09
6.80906e-09
5.38837e-09
2.91838e-10
-5.97445e-09
-4.99147e-09
-1.03851e-09
1.20781e-08
-3.26089e-08
-4.15531e-08
7.00702e-08
3.4553e-08
1.72924e-08
1.18998e-07
4.35842e-08
-5.09264e-09
-4.55308e-10
-6.74472e-09
2.07244e-08
1.69329e-08
1.67466e-10
7.24704e-09
9.24233e-09
6.57122e-11
-3.0304e-09
1.12662e-08
4.45161e-08
3.82472e-08
5.64357e-09
5.99034e-10
1.45462e-09
-1.24519e-09
-1.26267e-09
1.28992e-08
1.59964e-08
-2.15691e-09
2.18249e-09
1.45755e-09
-3.10306e-10
6.88902e-10
-8.40842e-12
1.93768e-09
3.85801e-09
5.61962e-09
-7.94693e-09
5.60826e-09
1.11533e-09
1.3437e-08
-1.02704e-08
1.83781e-08
1.89765e-07
7.5936e-08
3.35954e-09
1.8812e-07
1.04466e-07
-4.92353e-09
-4.29976e-10
6.71612e-10
2.28668e-08
1.07445e-08
3.53028e-10
1.08826e-08
1.39252e-08
6.22312e-09
-5.27728e-09
-8.90824e-09
4.54517e-08
8.68022e-08
3.29446e-08
2.80448e-10
1.44844e-09
-7.56335e-10
1.40625e-09
9.171e-09
1.20284e-08
-1.78488e-09
-5.30992e-09
-2.17116e-10
3.22097e-09
4.98809e-09
4.21096e-09
3.78526e-10
-1.31216e-09
5.77607e-09
1.86865e-09
-3.94209e-10
1.25167e-08
1.57384e-10
-3.01775e-09
6.6376e-08
1.20459e-07
3.59436e-08
4.12368e-09
1.6873e-07
2.1838e-07
4.19074e-08
4.08562e-10
7.79608e-09
2.64676e-08
1.37036e-08
2.10526e-10
3.5749e-09
2.98117e-09
3.20313e-10
3.78717e-09
-7.62026e-09
1.97008e-08
1.08851e-07
9.46103e-08
1.55902e-08
1.98459e-10
3.14868e-10
1.43216e-09
4.15609e-09
6.0921e-09
2.17765e-09
-2.8254e-09
-3.81311e-09
-1.49345e-09
9.08232e-10
8.89703e-10
1.21648e-09
2.39964e-10
7.09298e-09
7.7414e-09
-2.3304e-10
1.08189e-08
3.94317e-09
6.86307e-09
1.189e-08
-2.98795e-09
-4.66949e-09
4.59275e-10
4.6898e-08
1.66272e-07
1.01181e-07
5.84259e-09
1.13555e-08
2.68217e-08
1.27822e-08
1.43417e-09
-1.7329e-09
-8.88349e-09
-1.88935e-08
-1.17988e-08
1.02833e-09
-2.8076e-09
5.57207e-08
1.06751e-07
5.23184e-08
2.6388e-09
2.3919e-09
3.71162e-09
1.44517e-09
1.83224e-10
1.74381e-10
1.82386e-10
-1.06026e-09
-4.53734e-09
-1.82427e-09
-6.01691e-12
5.0411e-10
1.64256e-11
4.97439e-09
6.73069e-09
-4.67401e-11
7.02871e-09
1.35773e-09
-3.67611e-09
2.88328e-10
-3.40419e-09
-3.17346e-09
-2.88942e-10
2.64979e-08
1.05917e-07
7.44482e-08
2.52899e-09
1.19106e-08
1.60769e-08
8.36676e-09
1.98134e-09
-8.13439e-10
-1.40883e-09
-1.57561e-08
-3.02765e-08
-9.45614e-09
-1.23914e-09
1.53315e-08
7.34619e-08
6.59927e-08
1.26119e-08
9.96977e-10
6.78334e-09
2.44018e-09
5.26067e-11
-7.15909e-11
-6.0209e-11
-1.35851e-10
-3.31953e-09
-3.96525e-09
-1.11822e-09
-3.7783e-10
3.33734e-10
3.65192e-10
2.6346e-09
-9.5528e-11
3.24966e-09
-4.73305e-10
4.7437e-09
1.03144e-08
-5.72606e-09
4.99932e-09
2.55052e-09
1.71548e-08
8.06988e-08
4.92673e-08
-5.38556e-09
1.45794e-08
1.59184e-08
6.39733e-09
1.06014e-09
-4.89919e-10
-4.09167e-09
-2.41692e-08
-4.44118e-08
-1.76503e-08
1.17392e-09
9.16541e-09
6.08729e-08
6.78937e-08
2.62735e-08
9.00716e-10
2.90657e-09
8.39104e-11
7.79322e-10
1.27217e-09
1.39549e-09
9.73896e-10
-8.82648e-09
-1.99754e-08
-1.48253e-08
-7.58385e-09
-1.46202e-09
8.72785e-10
-9.7308e-12
1.42427e-09
2.63792e-10
-4.80635e-10
4.70409e-09
-8.87271e-10
3.94741e-09
1.89756e-08
1.08643e-08
-1.86756e-10
1.4502e-08
1.09008e-08
-9.366e-09
-5.44312e-09
-1.84676e-09
-9.99251e-10
6.33871e-10
1.21927e-08
1.6179e-08
-2.42309e-08
-4.29456e-08
2.25461e-08
3.75376e-08
-3.14643e-10
3.79486e-08
7.03654e-08
4.31935e-08
1.17049e-08
7.92695e-10
-7.28113e-10
6.25798e-10
4.62593e-09
3.26708e-09
5.52168e-10
-5.94797e-09
-2.26737e-08
-2.73237e-08
-1.0061e-08
-9.9743e-10
2.47788e-09
4.29689e-09
-3.13396e-10
4.46315e-10
-1.73344e-09
-3.1433e-09
1.6984e-09
9.25868e-09
9.1008e-09
3.50779e-09
-6.69884e-10
-1.18896e-09
1.17231e-09
-5.51273e-10
-2.03203e-09
1.07244e-09
8.58362e-09
1.96044e-08
2.45838e-08
4.20683e-09
-2.43843e-08
-8.22345e-09
7.34981e-08
1.13921e-07
3.24543e-08
2.96447e-09
3.16225e-08
2.41525e-08
4.73501e-09
-6.46696e-10
-6.22486e-09
-5.82685e-09
-3.73274e-09
-6.9331e-09
-3.35772e-09
8.24835e-09
5.70543e-09
-3.36979e-09
3.1652e-09
7.98903e-09
-1.01839e-09
3.85975e-09
6.98077e-09
8.25607e-09
8.27104e-09
3.90743e-09
-1.4494e-09
-4.379e-09
-3.27162e-09
-7.8846e-10
-2.56274e-12
-1.78187e-10
-1.74714e-10
-4.08774e-11
-5.49985e-12
1.70831e-10
-3.13653e-10
-3.6213e-09
-5.98181e-09
-1.26155e-09
6.48959e-09
-1.81407e-09
5.50672e-09
7.76126e-08
7.34662e-08
5.01617e-09
1.49296e-08
2.81764e-08
6.82503e-09
-5.25684e-09
1.56025e-09
2.34073e-09
2.39886e-09
-2.69048e-09
-4.68981e-09
-8.11029e-10
2.29928e-09
-5.95474e-10
-3.23431e-09
-6.12779e-10
8.04848e-12
-6.37176e-09
-2.25176e-08
-2.28919e-08
-5.92583e-09
7.02602e-10
1.5635e-10
6.44615e-09
1.31798e-08
9.56555e-09
2.35143e-09
-1.5763e-09
-3.25049e-09
-2.29751e-09
2.69309e-09
5.78424e-09
1.42915e-10
-8.52908e-09
-1.13558e-08
-7.26223e-09
-3.37485e-10
2.84108e-09
4.06916e-09
3.12834e-08
6.09819e-08
2.77604e-08
1.75394e-10
1.87627e-08
2.28162e-08
8.40167e-09
-3.16652e-10
1.08492e-10
-2.40605e-10
1.92354e-10
-4.09854e-09
-1.05724e-08
-5.60965e-09
-1.30702e-10
-1.72599e-09
-3.27977e-09
1.42915e-09
8.71353e-10
-1.10781e-08
-8.84935e-09
1.82311e-09
2.10461e-11
-2.75806e-10
1.41512e-08
2.25318e-08
1.53103e-08
7.79564e-09
4.88572e-09
4.47911e-09
6.67628e-09
1.30214e-08
1.41396e-08
-1.56284e-09
-2.01818e-08
-1.92264e-08
-5.83964e-09
8.37604e-10
2.07001e-10
7.05648e-09
1.20681e-08
9.46966e-09
4.16891e-09
-7.25732e-10
2.07908e-09
3.98151e-09
9.98652e-10
-9.01903e-13
-1.19382e-11
2.46204e-10
5.62631e-10
-3.36342e-09
-9.72644e-09
-5.11788e-09
5.79246e-10
-4.44312e-10
-1.52512e-09
-2.62463e-09
4.53926e-09
4.05206e-09
5.28271e-09
9.58372e-09
6.0335e-10
-5.96292e-09
-1.47324e-09
2.59342e-09
3.06447e-09
2.86471e-09
1.94492e-09
-6.05163e-10
-2.56825e-09
-9.36721e-10
5.45745e-10
-2.09884e-09
-5.54978e-09
-6.68699e-09
-3.1592e-09
1.04718e-09
3.33158e-11
1.33429e-08
3.23707e-08
1.60429e-08
1.17063e-09
-2.16546e-13
-6.20852e-10
-6.51685e-10
-1.28384e-10
7.35254e-11
2.86202e-10
-4.19837e-09
-2.82473e-09
5.11912e-10
-8.78088e-10
3.93126e-09
4.83277e-09
-2.99005e-10
2.34368e-09
-7.051e-11
-4.4361e-09
-2.4179e-10
4.42197e-10
1.77864e-09
4.96578e-09
2.24835e-09
-9.58989e-10
-3.09029e-10
-9.33549e-10
-8.39841e-09
-2.16527e-08
-2.94925e-08
-2.35676e-08
-9.65849e-09
-1.42709e-09
7.49167e-11
4.46869e-10
7.70254e-10
1.37551e-09
-1.85405e-09
-5.77947e-09
6.54722e-09
3.28489e-08
3.18645e-08
6.83971e-09
-1.59001e-09
5.6373e-09
8.29416e-09
1.99116e-09
9.66791e-12
-9.73525e-11
-1.43525e-11
2.81175e-10
1.15681e-10
-8.24291e-11
-2.21502e-10
1.07861e-12
-2.75196e-10
-2.91587e-10
8.27066e-11
3.8264e-10
7.45497e-10
6.2248e-10
2.56222e-10
-2.76485e-10
-1.05128e-09
-1.02945e-11
-6.18724e-09
-2.77326e-08
-1.92527e-08
1.93745e-10
-8.6821e-10
-8.93062e-09
-1.70402e-08
-2.32875e-08
-2.26232e-08
-1.61615e-08
-4.85072e-09
8.5405e-10
-2.74609e-09
-8.19192e-09
-9.10653e-09
-5.98331e-09
-2.94439e-09
-1.59235e-09
-1.02001e-09
-4.43841e-10
-4.75387e-11
3.00872e-12
1.38426e-09
3.57291e-10
-1.56231e-10
-4.06285e-11
-3.83731e-10
-1.66748e-09
-3.7324e-09
-9.7203e-10
-1.24881e-09
-4.784e-09
-1.49675e-09
5.47582e-09
1.09508e-08
1.18423e-08
1.08168e-08
1.06307e-08
5.34371e-09
4.26371e-09
-3.02779e-08
-2.33636e-07
-2.40755e-07
-2.52456e-08
-2.06107e-08
-1.05808e-07
-1.45876e-07
-1.14919e-07
-6.63758e-08
-2.96139e-08
3.10576e-09
1.12594e-08
-2.29584e-08
-6.52853e-08
-7.73304e-08
-5.37543e-08
-2.34546e-08
-9.03341e-09
-4.10661e-09
-9.5758e-10
3.07224e-10
2.93115e-10
3.78648e-09
2.07699e-09
8.52267e-11
8.05336e-10
3.32508e-09
2.58947e-09
-4.7663e-09
-6.97772e-09
-2.43205e-10
-1.46748e-09
2.05601e-09
6.08765e-09
9.33071e-09
6.92331e-09
-7.88191e-10
-1.45532e-09
2.41486e-09
-8.47156e-09
2.37001e-09
-1.44601e-07
-3.16886e-07
-8.37558e-08
-2.12243e-09
-6.65479e-08
-1.50264e-07
-1.0545e-07
-3.26775e-08
-4.26599e-09
1.02115e-09
-7.02472e-09
-3.40386e-08
-6.71985e-08
-7.99968e-08
-6.42557e-08
-3.24261e-08
-1.06991e-08
-4.15904e-09
-1.82005e-09
7.42917e-10
2.1785e-10
7.94756e-09
6.81974e-09
3.1128e-10
1.18472e-10
2.31737e-09
3.50837e-09
-2.74491e-09
-1.01746e-08
-2.89355e-09
8.75291e-10
1.7214e-08
1.76078e-08
3.82374e-09
-1.20998e-10
-4.63522e-09
-6.23094e-09
2.71744e-09
-1.8305e-08
-1.86905e-08
-2.68433e-08
-1.97391e-07
-5.92068e-08
6.62749e-09
1.46848e-07
3.29917e-08
-4.72848e-08
-1.23401e-08
3.31048e-10
-6.51245e-09
-1.85555e-08
-3.77999e-08
-5.82722e-08
-6.37175e-08
-5.06997e-08
-2.5033e-08
-6.4178e-09
-1.28673e-09
-1.93605e-09
1.85711e-10
7.8032e-10
1.1421e-08
1.73052e-08
1.56112e-09
6.19945e-11
3.78989e-10
2.23029e-09
1.89694e-10
-6.5614e-09
-6.6345e-13
-5.6458e-10
1.8117e-08
4.05272e-08
4.87151e-09
4.92825e-09
4.17477e-08
5.0494e-08
3.03743e-08
-2.19576e-08
-6.77002e-08
-3.91407e-09
-8.8763e-08
5.98174e-09
-2.02126e-09
3.30713e-07
2.96773e-07
6.84796e-09
-1.07827e-08
-5.98416e-10
-1.15676e-08
-1.8988e-08
-2.74001e-08
-3.77997e-08
-4.00636e-08
-3.05998e-08
-9.59038e-09
8.24184e-09
7.67031e-09
1.88401e-09
-1.71564e-09
1.10147e-09
1.03557e-08
3.11834e-08
6.56465e-09
2.80315e-10
-1.03664e-09
-2.48072e-09
-2.16151e-10
-5.81598e-10
7.16206e-09
1.72715e-08
-8.57488e-10
3.64469e-08
8.73156e-09
1.66593e-08
1.46373e-07
1.78832e-07
8.12113e-08
-1.79252e-08
-9.29892e-08
-4.33376e-08
-2.80307e-08
2.49433e-08
2.24792e-08
3.68255e-07
5.2534e-07
2.02314e-08
-2.71088e-08
-1.18505e-09
-1.95392e-08
-2.10607e-08
-1.49453e-08
-1.50154e-08
-1.59111e-08
-1.15354e-08
3.1869e-09
2.61859e-08
2.50867e-08
1.19211e-08
-8.61032e-10
2.53002e-10
5.3081e-09
4.45535e-08
1.79773e-08
1.86893e-10
4.42789e-10
-7.99506e-09
-8.83987e-09
-1.83946e-09
4.00041e-09
4.16981e-08
2.24608e-08
5.12063e-10
3.90066e-09
3.8939e-08
2.40433e-07
2.57189e-07
7.92245e-08
-2.36168e-08
-7.90764e-08
-6.15762e-08
1.10084e-09
-4.01711e-09
5.06092e-08
2.87865e-07
5.42585e-07
-6.22116e-08
-5.61357e-08
6.39145e-10
-1.81796e-08
-1.46886e-08
-3.39336e-09
-3.90732e-10
-6.66393e-10
-9.45584e-10
3.33143e-09
2.94303e-08
4.39292e-08
2.77802e-08
5.66513e-09
-1.60708e-09
7.33194e-11
3.93545e-08
3.56173e-08
3.23015e-11
6.84322e-09
-4.73727e-09
-1.82682e-08
-8.74392e-09
6.16166e-10
1.3982e-08
7.67855e-08
2.81516e-08
1.84917e-09
6.91822e-08
2.23653e-07
1.66433e-07
2.42526e-08
-3.13855e-08
-5.91122e-08
-5.09426e-08
2.2721e-08
-2.54042e-08
3.9961e-08
1.62676e-07
2.95101e-07
-1.93167e-07
-5.71383e-08
9.99632e-09
-1.19254e-08
-6.84774e-09
7.21244e-10
-5.66253e-09
-1.40308e-09
7.56109e-09
-1.27606e-10
1.11321e-08
4.34683e-08
4.10218e-08
1.43576e-08
-1.08302e-09
2.81776e-09
1.3437e-08
3.33265e-08
1.83901e-10
1.51128e-08
6.99533e-09
-1.34037e-08
-1.26442e-08
1.55898e-08
1.82543e-10
3.07447e-08
9.46479e-08
2.70708e-08
4.08842e-08
9.45641e-08
4.81916e-08
-6.0304e-09
-2.7626e-08
-4.16151e-08
-3.19933e-08
4.13149e-08
-7.78859e-09
9.78815e-09
5.70195e-08
1.04725e-08
-2.17421e-07
-2.57944e-10
2.85749e-08
-1.74158e-09
-6.15192e-10
-8.23118e-10
-1.79121e-08
-9.90563e-09
1.99051e-08
1.30568e-08
-2.85577e-09
2.09546e-08
3.73096e-08
1.68243e-08
-3.73505e-09
1.63446e-08
-1.26676e-10
1.21799e-08
-2.32011e-10
6.29129e-09
3.22322e-09
4.99786e-10
-3.2309e-09
8.46444e-09
2.14086e-08
-1.46395e-08
4.94491e-08
1.58002e-08
-8.69945e-08
-4.13443e-08
-3.05237e-09
-2.00473e-09
-1.58809e-08
-2.29936e-08
-1.5273e-08
4.65522e-08
2.82362e-08
-5.82597e-09
7.06492e-09
-8.66654e-08
-6.86259e-08
6.63952e-08
3.22948e-08
4.97938e-09
2.95406e-09
-2.02829e-09
-1.92695e-08
-4.72111e-09
3.25138e-08
3.22496e-08
3.52627e-09
2.2256e-09
1.83007e-08
7.9664e-09
-1.57981e-08
2.83635e-08
1.52644e-08
1.77475e-09
-2.19481e-09
-8.73366e-10
4.53866e-10
-1.6327e-09
-4.82852e-10
1.31486e-09
4.51362e-09
-1.8022e-08
-1.86758e-08
2.1133e-08
-1.42446e-07
-1.4553e-07
-4.27859e-08
1.03972e-09
-3.83247e-09
-1.02259e-08
-4.20423e-09
2.5284e-08
3.79134e-08
1.33248e-09
8.31187e-10
-1.61959e-09
7.30628e-08
3.89233e-08
9.9939e-09
4.5266e-09
4.57998e-09
-2.44112e-09
-1.38511e-08
6.56882e-09
4.08294e-08
4.20424e-08
1.47314e-08
-2.05261e-10
4.15276e-09
-2.46204e-09
-2.98792e-08
2.35479e-08
4.03918e-08
-6.41595e-11
2.98549e-09
2.58727e-09
3.36013e-09
-1.29977e-09
-1.33901e-09
-2.16945e-10
-5.85732e-09
-3.78338e-08
-3.57734e-08
6.61824e-09
-3.89804e-08
-1.20608e-07
-6.55616e-08
-1.1618e-08
3.20764e-09
1.20627e-08
-1.55588e-09
-5.28489e-09
1.91075e-08
1.33572e-08
-2.23078e-09
4.21997e-08
3.31721e-08
-8.70999e-10
5.15384e-10
4.18358e-09
5.77932e-09
-1.8809e-09
-6.40543e-09
2.20707e-08
5.86236e-08
5.31414e-08
2.0964e-08
1.69814e-09
4.58755e-10
-3.16775e-09
-2.98599e-08
1.3751e-08
3.91375e-08
-2.18021e-09
1.00512e-08
7.66874e-09
2.79007e-09
-6.19218e-10
1.30798e-09
4.07966e-10
-9.3773e-10
-1.80312e-08
-1.08258e-09
-2.97526e-09
4.70838e-08
3.78351e-08
-3.90998e-08
-3.77904e-08
5.09187e-08
6.09305e-08
-2.25439e-09
-6.40978e-10
1.31718e-09
8.25003e-09
-6.00064e-09
6.21767e-09
5.00583e-10
-4.18475e-10
1.84169e-09
6.7665e-09
6.86269e-09
4.45557e-10
-6.98572e-11
2.92132e-08
9.04888e-08
9.55591e-08
3.56664e-08
3.35153e-09
-8.48279e-11
2.10011e-10
-1.08976e-08
1.9139e-08
1.68292e-08
-6.95146e-09
4.86971e-09
3.07819e-09
4.75465e-10
-1.75164e-10
2.04125e-09
1.78562e-09
4.5982e-10
1.01718e-08
5.45648e-08
2.40597e-08
4.36987e-08
1.29027e-07
-1.69269e-08
-2.95489e-08
1.45778e-07
1.09361e-07
4.959e-10
4.74424e-08
8.2752e-09
-6.61367e-09
-2.73704e-09
3.98873e-09
2.69514e-09
2.60176e-09
2.21836e-09
1.68391e-09
1.1635e-11
-1.85792e-09
1.95103e-10
1.11165e-08
9.18668e-08
1.61497e-07
8.21767e-08
9.38763e-09
-8.24955e-11
1.22948e-09
5.99006e-09
2.19937e-08
4.28314e-09
-1.95737e-08
-8.65033e-09
-1.09274e-09
8.40555e-11
-1.56852e-11
4.568e-10
1.12888e-09
-7.87988e-12
1.01015e-08
6.85548e-08
5.12921e-08
1.14952e-08
9.41712e-08
-1.58165e-08
9.91934e-09
1.61162e-07
8.49984e-08
2.89236e-09
7.23509e-08
4.21748e-08
-1.02171e-08
-3.8285e-09
5.38202e-09
8.67197e-10
5.18996e-09
1.22096e-08
3.40542e-09
-6.84769e-09
-1.46625e-08
-4.42801e-09
7.6602e-10
4.43085e-08
1.93129e-07
1.70854e-07
4.05487e-08
1.0828e-09
9.20019e-10
9.16242e-09
1.61147e-08
7.49784e-09
-1.40929e-08
-1.37362e-08
-6.93035e-09
-3.95442e-09
2.63234e-10
9.41991e-10
4.40657e-10
2.55731e-11
4.30961e-09
3.86804e-08
4.18816e-08
-1.06005e-09
3.14353e-08
-2.53364e-09
4.98218e-09
3.95034e-08
1.56943e-08
3.09871e-09
4.1003e-08
4.8533e-08
1.2483e-08
1.00575e-09
1.888e-10
1.74166e-08
4.03644e-08
2.78256e-08
4.33446e-09
-1.21209e-08
-2.35842e-08
-2.1442e-08
5.42707e-09
3.91738e-09
1.39639e-07
2.38316e-07
1.12747e-07
1.33345e-08
1.75334e-10
7.43308e-09
4.72735e-09
2.45155e-09
-9.34071e-10
1.75445e-09
-6.67274e-09
-8.91907e-09
3.7697e-09
6.9756e-09
2.01472e-09
1.87816e-11
3.94979e-09
2.04027e-08
2.50549e-08
8.68668e-10
1.28024e-08
2.6153e-08
9.89482e-09
-1.24344e-09
6.80559e-10
3.25533e-10
1.92274e-08
3.83823e-08
1.53311e-08
-2.44413e-10
5.20537e-10
-5.23151e-09
-5.83e-09
2.48302e-09
1.10529e-09
-1.09618e-09
-6.15705e-09
-2.41697e-08
-4.57849e-09
5.64075e-09
4.92207e-08
2.29477e-07
1.96721e-07
5.34896e-08
1.22995e-09
1.13959e-09
-1.53625e-09
1.31386e-11
1.0985e-09
4.01366e-09
-1.07341e-09
-6.3185e-09
-3.23704e-09
3.47108e-09
5.78719e-09
8.53001e-10
1.83814e-09
1.02521e-08
9.91224e-09
-5.31507e-10
6.71872e-09
3.24456e-08
1.97727e-08
-1.12623e-09
1.02277e-08
4.39433e-09
1.13822e-08
4.94305e-08
2.26316e-08
-7.36909e-09
9.1433e-09
1.35305e-08
6.93162e-09
6.78474e-09
1.30711e-09
-1.06248e-10
-3.38509e-09
-1.14496e-08
1.46026e-08
4.24757e-08
4.79962e-10
1.11178e-07
1.77265e-07
8.58994e-08
1.68652e-08
-1.47131e-09
3.29751e-10
-1.89357e-09
2.63006e-09
9.01884e-09
2.71684e-09
-7.2128e-09
-1.57151e-08
-1.63648e-08
-1.7198e-09
4.0881e-09
-4.62698e-10
2.80196e-09
6.2311e-10
-1.85629e-09
-1.54387e-08
-1.4693e-08
-2.04175e-09
4.12621e-09
1.85315e-08
1.35973e-08
-5.02088e-10
1.0726e-08
4.88956e-10
-1.22024e-08
8.76518e-09
1.16285e-08
2.57499e-09
-3.03708e-10
-5.71121e-10
8.38814e-10
-5.32062e-09
-4.8585e-09
4.9614e-08
9.55003e-08
2.75093e-08
1.58875e-08
8.27789e-08
4.67675e-08
9.62431e-09
2.40129e-09
-2.00582e-08
-2.19135e-08
-1.07452e-08
1.04266e-09
4.08381e-10
-9.2083e-10
-7.64677e-09
-1.895e-08
-1.29245e-08
2.55476e-09
6.68249e-12
1.29167e-09
-5.38512e-11
-1.14337e-09
-1.55492e-08
-1.74462e-08
-2.99264e-09
2.21546e-09
3.94267e-09
3.90628e-09
1.03643e-09
-1.57549e-10
5.44942e-10
-2.21863e-09
-2.19804e-09
-4.66129e-11
3.79594e-09
9.99079e-09
1.13195e-08
-2.62801e-09
-1.2314e-08
1.59379e-08
8.26973e-08
1.2503e-07
5.70822e-08
-1.77915e-11
6.11735e-09
-1.97885e-08
-3.40761e-08
-2.3216e-08
-2.72693e-08
-1.91365e-08
-8.73129e-09
-4.27612e-09
1.16189e-09
1.36422e-08
1.34826e-08
2.93771e-09
-1.49495e-09
9.49661e-09
4.41452e-09
-3.4755e-09
4.57914e-09
1.77892e-08
1.78958e-08
-1.0749e-09
-7.40084e-09
-2.72272e-09
-9.21897e-11
5.80764e-10
1.8182e-09
7.19214e-10
2.38838e-10
1.17413e-09
5.80498e-11
6.94535e-10
9.76122e-10
-1.28492e-09
-1.6798e-09
2.37011e-09
6.65386e-09
6.48069e-09
3.71615e-08
1.07624e-07
8.85956e-08
1.0661e-08
1.16051e-10
-2.03256e-08
-4.31288e-08
-3.74583e-08
-4.16158e-09
3.8772e-09
4.48238e-09
4.53078e-11
3.43281e-09
4.28617e-09
-5.00845e-11
-6.02423e-11
-4.1806e-10
1.63268e-09
3.50627e-09
-5.72395e-09
-1.09835e-08
1.1518e-09
1.2852e-08
8.37183e-10
9.78535e-09
3.10085e-08
2.11082e-08
2.3342e-09
9.46908e-10
2.92186e-09
-8.4943e-11
1.45172e-09
9.33824e-09
1.49123e-08
9.75389e-09
-3.21001e-09
-9.24381e-09
-4.54272e-09
9.92311e-10
-3.81813e-10
-4.50037e-10
2.57306e-08
6.28068e-08
2.76737e-08
-2.67184e-09
1.41698e-08
1.05745e-08
-5.13356e-09
2.87542e-10
4.81088e-10
-7.23439e-12
-6.25039e-11
-1.39932e-09
-6.40796e-09
-5.18734e-09
-4.4919e-10
1.96084e-10
-6.66351e-10
1.22461e-09
2.80365e-09
-7.23781e-09
-1.11859e-08
-1.71467e-09
2.24483e-10
1.12157e-08
2.45387e-08
1.79503e-08
5.58538e-09
7.25582e-10
2.63859e-10
1.29539e-09
4.46441e-09
1.2413e-08
1.7777e-08
4.19568e-09
-1.01049e-08
-4.70697e-09
4.48754e-09
2.37166e-09
9.92121e-10
5.28459e-09
2.8708e-09
3.14918e-09
2.54388e-09
-2.41104e-10
5.21583e-09
8.74494e-09
3.72664e-09
1.17023e-11
9.70645e-11
2.27589e-10
-3.56093e-11
-2.84e-09
-4.80663e-09
-5.89628e-10
2.34839e-09
2.87057e-11
-1.98774e-09
-3.40745e-09
3.46645e-09
2.40328e-09
-6.70339e-09
-2.70106e-09
2.71339e-10
-4.20875e-09
-9.35123e-09
-1.14725e-08
-9.1763e-09
-5.26663e-09
-3.24563e-09
-3.63408e-09
-5.22711e-09
-3.87508e-09
-3.16707e-10
-1.35531e-10
6.0633e-12
4.19095e-10
3.22105e-09
2.37345e-09
1.94804e-09
2.76326e-08
3.06598e-08
7.14278e-09
-5.27624e-12
-4.49186e-11
-3.55268e-10
-7.46742e-11
-2.24848e-11
9.65689e-10
-2.63176e-10
-1.56655e-09
-1.05762e-09
-3.73563e-11
1.28663e-09
6.28704e-09
5.77362e-09
8.37308e-10
-7.83246e-10
-3.95856e-09
-4.27523e-09
2.94421e-10
-4.40863e-09
-1.13127e-08
-8.57031e-09
-3.40217e-09
-1.30124e-09
-9.07597e-11
-1.00123e-09
-8.00482e-09
-1.81698e-08
-2.16042e-08
-1.44189e-08
-3.91327e-09
1.66037e-10
2.63724e-11
7.95809e-10
7.73759e-10
2.84282e-09
9.14381e-11
-4.91978e-09
2.08071e-08
5.41386e-08
3.81446e-08
5.94427e-09
-2.03096e-09
4.8235e-09
1.06848e-08
7.0512e-09
6.43381e-11
3.23192e-11
6.00853e-10
6.95381e-10
1.96746e-10
-7.85613e-11
-1.02133e-10
-3.07435e-11
1.29339e-10
2.52621e-10
2.98167e-10
1.74759e-10
-2.97869e-10
-1.1e-09
-1.85243e-09
-5.09448e-09
-1.03445e-08
-1.10082e-08
-2.56235e-09
-4.99608e-11
-1.05101e-08
-7.22732e-09
-2.07277e-10
-9.7002e-10
-2.99824e-09
-3.68291e-09
-3.29618e-09
-1.77123e-09
2.39865e-10
8.24971e-10
7.10435e-10
6.3888e-10
-2.35429e-10
-3.75314e-09
-8.07518e-09
-5.86903e-09
-9.92802e-10
-1.31973e-10
-1.05345e-10
6.47827e-11
-2.19294e-10
2.06293e-09
3.98744e-09
3.03917e-10
9.72577e-10
1.52639e-09
4.87304e-10
1.03317e-10
5.15947e-11
-1.9017e-11
-5.94907e-10
-1.62038e-09
-2.20041e-09
-2.558e-09
-5.07864e-09
-1.99147e-08
-4.23771e-08
-3.53436e-08
1.06054e-08
-9.18539e-09
-1.23577e-07
-9.16007e-08
-2.27873e-09
-1.69412e-08
-3.65077e-08
-3.46023e-08
-1.74795e-08
2.4093e-09
1.32443e-08
1.20631e-08
7.78383e-09
4.35697e-09
2.47691e-09
-1.95564e-09
-1.56142e-08
-1.31365e-08
-1.55579e-10
-7.71477e-09
-4.94272e-09
-5.10118e-10
-9.25777e-10
4.79076e-09
6.76455e-09
6.44447e-11
7.70909e-09
9.11892e-09
2.80379e-09
1.07092e-10
-4.40094e-10
4.52941e-10
6.89079e-10
-3.40111e-09
-7.16282e-09
-8.16778e-09
-1.07834e-08
-2.28676e-08
-4.66697e-08
-5.59291e-08
-1.50205e-08
-6.00001e-09
-1.27793e-07
-1.55737e-07
-2.41109e-08
-3.75113e-09
-3.01355e-08
-4.09559e-08
-2.24753e-08
-1.4957e-09
2.16699e-09
-8.99675e-09
-1.61655e-08
-1.36303e-08
-8.47484e-09
-2.40212e-09
-3.36823e-10
-3.49243e-09
2.48685e-11
-8.90688e-09
-1.28474e-08
-2.7578e-09
-3.29371e-10
6.63802e-09
9.62534e-09
1.88043e-10
1.58372e-08
1.88816e-08
4.63162e-09
-2.95879e-11
6.09816e-10
1.04385e-09
1.80996e-09
-7.49347e-10
-6.25334e-09
-1.06496e-08
-1.40755e-08
-2.27365e-08
-4.18023e-08
-6.23621e-08
-4.76017e-08
-5.08656e-10
-6.60552e-08
-1.1974e-07
-2.8587e-08
8.82054e-09
5.68473e-08
3.08153e-08
3.65089e-10
-8.50122e-10
-2.5707e-09
-1.90482e-08
-3.36756e-08
-3.1441e-08
-1.98081e-08
-8.49682e-09
-1.31954e-09
1.55003e-10
4.38645e-10
-2.416e-09
-1.15957e-08
-2.62197e-09
2.71301e-09
7.52411e-09
1.30582e-08
8.68894e-11
2.17062e-08
3.04236e-08
7.48193e-09
4.0331e-10
4.28676e-09
3.59266e-09
2.15733e-09
1.10192e-09
-4.20005e-09
-1.06889e-08
-1.60447e-08
-2.83432e-08
-4.97529e-08
-7.72395e-08
-9.4455e-08
-3.3811e-08
-1.24425e-08
-8.09503e-08
3.02049e-10
-2.01439e-09
1.3876e-07
1.40459e-07
3.33142e-08
1.68284e-10
3.13751e-09
-3.10768e-09
-1.67933e-08
-2.17871e-08
-1.59912e-08
-6.44197e-09
8.39568e-10
9.03555e-10
8.70354e-10
2.92996e-09
-3.50995e-09
8.78858e-10
1.09532e-08
8.98067e-09
1.55534e-08
6.94711e-10
2.01231e-08
3.94793e-08
1.32255e-08
2.72368e-10
8.97518e-09
8.60046e-09
3.78981e-09
3.48107e-09
3.15475e-09
-7.69647e-10
-7.67544e-09
-2.48131e-08
-4.93797e-08
-7.99115e-08
-1.15539e-07
-8.58209e-08
-1.55048e-09
-5.15886e-08
5.86496e-09
4.52603e-09
1.60418e-07
2.4949e-07
6.47142e-08
1.63454e-09
5.23216e-09
1.32208e-08
9.30695e-09
-1.01843e-09
-6.09968e-09
-3.9262e-09
2.27248e-09
4.7073e-09
2.11588e-09
3.44874e-09
2.47288e-09
7.09917e-09
2.40466e-08
1.82514e-08
1.48287e-08
3.05903e-09
1.14933e-08
3.75885e-08
1.99409e-08
3.08765e-10
7.105e-09
1.2557e-08
7.44754e-09
2.59959e-09
5.34623e-09
6.39048e-09
1.71851e-09
-1.16676e-08
-3.28155e-08
-6.62676e-08
-1.14652e-07
-1.04409e-07
-1.47255e-08
-2.08683e-08
3.6334e-10
3.38289e-08
1.28128e-07
3.02916e-07
7.07403e-08
1.62005e-10
4.60049e-09
2.15282e-08
2.72796e-08
1.31197e-08
3.90359e-10
-5.81237e-10
-6.68942e-10
4.19206e-09
4.93281e-09
3.17459e-09
3.52617e-09
1.22936e-08
3.2891e-08
3.60487e-08
1.37725e-08
4.66869e-09
3.16947e-09
2.304e-08
2.00797e-08
4.54237e-09
-1.93763e-10
3.71011e-09
1.2515e-09
-1.31119e-08
-1.42116e-08
-1.58964e-09
3.11365e-09
-5.0607e-10
-1.15521e-08
-3.74501e-08
-9.98097e-08
-1.06507e-07
-2.11931e-08
2.30179e-09
2.78196e-09
4.2652e-08
6.45869e-08
2.11628e-07
1.99546e-08
-9.95854e-09
8.14978e-09
2.84914e-08
3.2126e-08
6.2558e-09
-5.83514e-09
1.4838e-08
1.3181e-08
-1.82273e-11
3.98615e-09
2.95389e-09
9.29752e-10
1.40858e-08
3.37528e-08
4.80997e-08
1.76213e-08
1.40481e-09
1.30019e-09
9.10274e-09
1.0071e-08
4.89159e-09
2.20619e-09
-4.03392e-09
-2.78911e-08
-6.71292e-08
-8.7106e-08
-4.28384e-08
-5.90906e-09
1.15437e-09
-2.41407e-09
-1.64127e-08
-7.83274e-08
-9.53761e-08
-1.58668e-08
2.69295e-08
-1.38816e-09
1.9875e-08
1.56435e-08
5.81419e-08
-3.52732e-08
-9.89067e-09
2.26634e-08
4.56598e-08
4.19219e-08
-4.59822e-09
-2.76171e-08
1.15583e-08
4.19782e-08
1.35164e-08
-2.15868e-10