/*--------------------------------*- C++ -*----------------------------------*\
| =========                 |                                                 |
| \\      /  F ield         | OpenFOAM: The Open Source CFD Toolbox           |
|  \\    /   O peration     | Version:  5.0                                   |
|   \\  /    A nd           | Web:      www.OpenFOAM.org                      |
|    \\/     M anipulation  |                                                 |
\*---------------------------------------------------------------------------*/
FoamFile
{
    version     2.0;
    format      ascii;
    class       volScalarField;
    location    "50.4676134421789371";
    object      prodvv;
}
// * * * * * * * * * * * * * * * * * * * * * * * * * * * * * * * * * * * * * //

dimensions      [0 2 -3 0 0 0 0];

internalField   nonuniform List<scalar> 
60000
(
-3.36183e-12
-7.10635e-12
-5.68986e-12
-6.82132e-13
-2.68893e-13
-1.85332e-13
1.05377e-13
1.83428e-13
2.76837e-14
5.55026e-14
3.79804e-13
-8.09712e-13
-6.90691e-13
-4.99216e-13
-6.50577e-13
-7.05983e-14
-2.41057e-14
6.22855e-12
2.19713e-11
2.26278e-11
1.71429e-11
5.35636e-12
-1.79218e-12
9.58741e-13
-6.25406e-12
5.80622e-13
7.95804e-12
8.09611e-12
3.247e-12
5.5219e-13
8.92851e-13
5.98534e-13
-1.94625e-12
-5.92053e-12
-7.04339e-12
2.40299e-12
-6.66613e-13
8.85184e-13
9.63604e-13
-4.61223e-13
-2.19812e-10
-1.97432e-10
-3.85531e-11
-2.92953e-12
-1.14697e-11
5.10818e-12
-5.53306e-12
-4.43345e-12
-1.40957e-12
3.08611e-11
-4.83651e-11
-1.03978e-10
-9.2757e-12
-3.27814e-12
2.22094e-11
8.28331e-11
3.2264e-10
6.54392e-10
2.98927e-10
-3.15278e-10
-4.38583e-10
-1.16574e-10
5.73392e-11
-7.43025e-10
-1.17969e-09
1.17403e-09
2.31927e-09
7.1301e-10
-1.00878e-10
-3.13449e-11
-1.1585e-11
-2.22923e-11
-1.54053e-10
-2.91184e-10
-2.88276e-10
-5.34177e-11
2.22543e-11
-2.8916e-12
-2.91854e-11
-1.28278e-10
-9.28859e-10
-8.03177e-10
-1.16395e-10
-4.69203e-11
-2.93052e-11
1.28174e-10
2.30728e-11
-3.9396e-11
-2.34073e-11
9.66065e-12
-4.58051e-10
-8.65605e-10
-2.42241e-10
-1.38287e-12
1.13361e-10
8.69212e-10
2.903e-09
5.11521e-09
1.60186e-09
-1.92266e-09
-2.2645e-09
-7.63827e-10
6.27241e-10
-4.25028e-09
-4.71095e-09
5.74792e-09
8.7479e-09
2.30492e-09
-3.5146e-10
-1.95146e-11
-2.90634e-11
8.44126e-11
1.34633e-11
-4.58407e-10
-7.46628e-10
-2.9086e-10
2.93092e-11
9.74828e-11
1.55147e-10
-4.199e-10
-1.85418e-09
-1.54864e-09
-2.66077e-10
-1.02631e-10
-4.7931e-11
4.22433e-10
2.89624e-10
-1.38578e-10
-5.78888e-12
2.50071e-12
-1.27146e-09
-2.7342e-09
-1.04172e-09
-2.22278e-11
4.19579e-10
2.55176e-09
7.12896e-09
1.12368e-08
3.21569e-09
-1.34998e-09
5.69125e-09
1.87087e-09
1.24357e-09
-9.03159e-09
-5.69318e-09
1.23364e-08
9.25469e-09
2.21105e-10
3.68743e-09
4.64298e-09
1.02479e-09
-3.72828e-11
2.66887e-10
-3.92094e-10
-9.68694e-10
-3.87033e-10
-4.79826e-12
5.1009e-10
1.09399e-09
-1.61206e-10
-3.30953e-09
-3.89093e-09
-1.13813e-09
-3.61273e-11
7.32897e-11
7.56833e-10
8.01667e-10
-1.40461e-10
2.47956e-12
2.02684e-10
-2.57947e-09
-9.7189e-09
-5.08598e-09
-2.53384e-10
6.40128e-10
5.3019e-09
1.31606e-08
1.75568e-08
5.03729e-09
-6.38563e-10
3.12484e-08
1.38832e-08
1.99908e-09
-1.35556e-08
-5.63622e-09
2.20314e-08
1.1647e-08
8.26702e-12
1.32424e-08
1.81873e-08
6.34177e-09
1.92835e-11
1.40874e-10
-1.48846e-10
-1.18688e-09
-2.69782e-10
1.42401e-10
6.29287e-10
2.48546e-09
1.31505e-09
-1.5175e-09
-8.86692e-09
-5.56596e-09
-1.8999e-10
2.1455e-10
8.87279e-10
1.11846e-09
4.20074e-10
1.20518e-10
3.38431e-10
-2.04427e-09
-2.47715e-08
-2.46698e-08
-3.87579e-09
1.01729e-10
5.62946e-09
1.78195e-08
2.1719e-08
6.70828e-09
1.59056e-10
6.89607e-08
4.69406e-08
1.28367e-09
-9.17043e-09
2.12615e-10
3.31432e-08
1.59176e-08
-3.61402e-10
1.16156e-08
2.46897e-08
1.53068e-08
2.36727e-09
-2.54315e-10
-1.83585e-10
-7.68097e-10
-4.01242e-10
7.58143e-10
-4.72926e-10
8.62557e-10
2.34848e-09
8.75327e-10
-7.76477e-09
-1.16505e-08
-2.08879e-09
5.41322e-10
7.00435e-10
8.08277e-10
1.03341e-09
8.09792e-10
3.88693e-10
-6.77956e-10
-3.63119e-08
-6.49818e-08
-2.2324e-08
-2.679e-11
-4.85117e-10
1.60832e-08
2.24802e-08
4.47406e-09
8.85156e-09
1.11328e-07
1.06612e-07
-2.63406e-09
1.56923e-08
3.21154e-08
4.14441e-08
1.5259e-08
-2.22963e-10
5.79616e-09
1.44088e-08
1.35582e-08
7.01257e-09
2.17841e-09
3.60157e-10
-2.30103e-10
-1.12727e-10
8.33859e-10
-6.91726e-10
-3.55098e-09
-3.29726e-09
-4.59238e-09
-1.19149e-09
-1.00685e-08
-3.47103e-09
7.79057e-10
3.85344e-10
9.27871e-11
3.22214e-10
1.04732e-09
3.13711e-10
-3.84292e-10
-3.32572e-08
-9.91031e-08
-4.89995e-08
9.35839e-10
-1.66627e-08
7.41579e-10
2.17285e-08
2.29908e-09
2.65386e-08
1.58215e-07
1.74975e-07
-4.34571e-09
5.02863e-08
8.16065e-08
4.80726e-08
1.14449e-08
-1.48242e-10
1.91134e-09
2.96257e-09
1.54472e-09
2.59733e-09
5.63496e-09
6.06098e-09
3.21443e-09
1.15238e-09
8.355e-10
-3.23135e-10
-4.63983e-09
-9.7268e-09
-1.12982e-08
-6.66874e-10
-3.24891e-09
-1.06907e-09
1.72549e-09
5.78947e-10
1.06994e-11
-2.55529e-10
9.49109e-11
1.89057e-12
-3.07232e-10
-1.86555e-08
-7.42316e-08
-3.80594e-08
3.28846e-09
-3.72848e-08
-1.743e-08
2.4473e-08
1.86161e-09
4.61994e-08
2.08082e-07
2.34784e-07
3.36029e-09
7.86935e-08
1.40521e-07
5.70135e-08
3.66935e-09
-2.8802e-10
-8.16096e-10
-3.29012e-09
-3.27946e-09
-1.15873e-09
2.32702e-09
7.82679e-09
9.20671e-09
5.42472e-09
2.15063e-09
3.01557e-10
-2.72656e-09
-9.06667e-09
-1.01155e-08
-4.42036e-09
7.07327e-10
2.99063e-09
2.69931e-09
4.66534e-10
3.21195e-10
-5.0137e-10
-2.76763e-10
1.81106e-10
1.74148e-09
-3.17721e-09
-9.72274e-09
4.46059e-09
2.6217e-10
-4.20433e-08
-1.27053e-08
2.92849e-08
3.04016e-09
4.9306e-08
2.36611e-07
2.83552e-07
1.7606e-08
9.88146e-08
1.91006e-07
5.35757e-08
-3.97276e-09
5.30065e-11
-3.30943e-09
-5.2098e-09
-2.56597e-09
-2.96429e-10
1.18309e-09
4.20782e-09
6.61965e-09
7.46522e-09
5.50747e-09
2.30079e-09
-6.89439e-11
-4.01115e-09
-3.09294e-09
-5.00273e-09
3.50139e-10
5.28162e-09
1.2497e-10
-2.08852e-09
1.02568e-09
-1.1226e-09
-5.36661e-11
-1.86614e-10
2.95105e-09
7.75378e-09
2.05112e-08
1.652e-08
-4.90134e-09
-3.41415e-08
-2.28267e-08
5.45398e-09
2.04306e-09
2.5263e-08
1.8741e-07
2.97805e-07
3.78801e-08
9.39978e-08
1.82748e-07
3.56647e-08
-4.09181e-09
1.15809e-11
-4.40989e-09
-3.87788e-09
-6.92894e-10
-1.3944e-10
5.52665e-10
3.30974e-09
3.29543e-09
4.51316e-09
6.43448e-09
4.86825e-09
2.61189e-09
9.96301e-10
4.71561e-09
-1.17091e-09
-1.78528e-09
5.73747e-10
-9.7904e-09
-7.00943e-09
8.90635e-10
-1.1015e-09
-1.49349e-10
-8.39311e-10
1.15927e-10
6.20301e-09
2.40178e-08
9.14685e-09
-2.73767e-09
-3.54441e-08
-7.33455e-08
-5.43084e-08
-7.52815e-09
-4.68393e-09
6.0827e-08
2.33216e-07
6.34825e-08
5.51033e-08
1.27762e-07
2.3948e-08
-5.54809e-10
-5.38321e-10
-3.46892e-09
-1.3943e-09
1.15929e-10
-2.40738e-09
-1.5996e-09
3.36246e-09
2.54661e-09
2.33101e-09
4.70533e-09
4.42195e-09
3.64896e-09
4.64164e-09
1.2609e-08
6.13812e-09
-2.4177e-09
-5.27632e-09
-1.63878e-08
-1.02874e-08
-7.19753e-10
1.91997e-10
-1.05677e-09
-2.28353e-09
-1.38814e-09
2.17735e-09
1.6016e-08
6.20697e-09
9.06908e-10
-2.70503e-08
-1.11266e-07
-1.34855e-07
-4.08971e-08
-5.1587e-09
-4.78794e-08
1.236e-07
8.23008e-08
2.00872e-08
8.5851e-08
2.09364e-08
1.03546e-10
-5.3004e-10
-1.70819e-09
-5.23834e-11
-1.55422e-09
-7.1057e-09
-6.23576e-09
3.3561e-09
3.15087e-09
4.00827e-10
2.57187e-09
2.34241e-09
1.98866e-09
5.86864e-09
1.57295e-08
1.28349e-08
-1.25713e-09
-3.05181e-09
-9.12177e-09
-9.32889e-09
-4.67167e-09
-3.64935e-10
9.76542e-10
-7.83842e-10
-3.17048e-09
1.37884e-08
2.40653e-08
9.02766e-09
5.61464e-10
-1.76637e-08
-1.27103e-07
-1.92017e-07
-8.54182e-08
6.63056e-09
-5.88666e-08
1.26935e-08
5.57949e-08
3.0368e-09
4.08786e-08
1.19539e-08
-6.07645e-10
-6.03087e-11
-3.49955e-10
2.00899e-11
-2.23507e-09
-7.9386e-09
-9.19599e-09
2.58612e-09
5.31516e-09
-5.19495e-10
2.40523e-10
8.60741e-10
2.59034e-10
4.42302e-09
1.23002e-08
1.21568e-08
3.3994e-10
1.37106e-09
9.04371e-10
-4.3884e-09
-5.9213e-09
-3.26848e-09
-8.33215e-10
1.65702e-09
-2.32732e-09
1.62094e-08
6.19274e-08
3.10327e-08
-1.09618e-09
-1.36623e-08
-1.21324e-07
-1.73511e-07
-7.20555e-08
1.30053e-09
-3.4614e-08
-1.65754e-08
3.06651e-08
3.60731e-10
1.19795e-08
7.83125e-09
1.20465e-10
-3.94697e-10
-5.80935e-12
1.21098e-09
3.86391e-09
1.39761e-09
-4.35303e-09
1.74905e-09
6.62567e-09
7.49594e-10
-7.93305e-10
5.1993e-11
-1.39862e-09
1.8219e-09
9.33686e-09
1.08076e-08
1.30817e-09
1.59173e-09
6.13202e-09
4.5934e-09
-5.13374e-10
-1.05529e-09
-6.92756e-10
-3.46049e-10
3.42713e-12
6.01457e-09
6.21635e-08
5.44631e-08
-1.14547e-09
-5.7633e-09
-7.53676e-08
-8.26242e-08
-2.68227e-08
-8.64474e-11
-2.19748e-08
-2.05194e-08
1.41026e-08
1.53872e-09
5.96707e-09
1.16547e-08
4.5607e-09
3.58198e-10
1.06352e-09
4.28971e-09
8.89522e-09
6.98386e-09
6.7795e-10
7.06892e-10
5.279e-10
-2.94619e-09
-2.62227e-09
-1.24123e-10
-2.39974e-09
-1.90648e-09
4.8675e-09
8.27566e-09
8.9383e-10
1.79305e-09
9.46719e-09
1.03194e-08
2.29622e-09
-1.76596e-11
-1.85044e-10
-6.48192e-12
3.02681e-11
2.39239e-09
3.10391e-08
4.08479e-08
-2.78326e-09
1.6114e-08
-3.03473e-08
-5.1914e-08
-1.20294e-08
-1.20746e-09
-1.90973e-08
-2.37131e-08
-2.28632e-09
3.44409e-10
-1.37016e-09
1.22266e-09
3.22591e-09
2.02453e-09
1.68268e-09
5.51354e-09
1.41745e-08
1.11295e-08
7.50243e-10
-5.16766e-10
-1.26765e-08
-2.53649e-08
-1.56471e-08
-3.47792e-09
-6.23213e-10
-5.12717e-09
-2.29452e-10
1.93162e-09
-3.77775e-11
2.3343e-09
6.41265e-09
6.06872e-09
6.08208e-10
5.61942e-10
-1.5023e-09
-2.40147e-09
-4.09901e-10
3.09587e-09
1.78076e-08
1.55716e-08
5.76316e-11
7.52323e-09
-4.31392e-08
-3.13444e-08
9.25997e-10
-9.653e-09
-1.51077e-08
-7.41493e-09
-1.19716e-10
-1.21432e-09
-9.8617e-09
-8.84955e-09
-8.9025e-10
2.53564e-10
3.11856e-09
1.16896e-08
2.53432e-08
2.65697e-08
1.52493e-09
3.18756e-09
-1.41527e-08
-4.62842e-08
-4.1163e-08
-1.46901e-08
-9.31008e-10
-1.41685e-09
-1.2944e-10
-4.59166e-10
-3.57781e-10
1.63109e-09
5.91461e-09
1.02317e-08
5.2955e-09
4.28694e-10
6.26233e-09
-2.0647e-09
-3.03612e-09
1.01725e-09
5.64646e-09
4.51724e-09
-1.32149e-09
-1.18085e-08
-2.82836e-08
-1.49505e-08
2.59321e-09
-7.56687e-09
-7.8988e-09
2.79676e-09
1.558e-09
-5.65556e-10
1.2687e-09
2.71912e-09
1.30182e-09
8.58334e-10
-8.33857e-09
-2.59998e-08
-6.74633e-09
2.52567e-08
3.888e-09
3.95462e-09
4.46692e-09
-3.24887e-08
-4.59135e-08
-2.81391e-08
-8.66558e-09
-1.1849e-09
-2.84272e-09
-3.31662e-09
-1.78677e-09
4.67018e-09
1.06404e-08
1.39105e-08
1.44015e-08
-1.09598e-09
1.6477e-08
1.67477e-08
-9.01067e-09
-5.68635e-09
-2.29907e-10
-2.82693e-11
-3.60782e-10
-4.30316e-09
-1.21989e-08
-1.36332e-08
-3.01961e-09
-2.49987e-11
-3.61378e-09
2.37789e-09
1.80763e-09
5.4002e-11
1.0886e-09
1.84223e-10
-2.21316e-09
-8.48968e-09
-2.0867e-08
-2.4565e-08
8.89667e-10
2.40474e-08
3.08341e-09
-1.401e-09
1.18084e-08
-5.44965e-09
-1.60916e-08
-1.18596e-08
-5.33494e-09
-2.83618e-09
2.20801e-09
9.90375e-09
7.56372e-09
-1.4126e-10
1.27437e-08
2.0567e-08
1.0927e-08
-1.61738e-11
2.24179e-08
4.65837e-08
9.78323e-09
-1.73479e-08
-4.53207e-09
1.75318e-09
-6.13304e-10
-2.75319e-09
-6.21424e-09
-1.29199e-08
-1.40213e-08
-4.38227e-09
-3.54078e-11
-3.13316e-10
1.82245e-09
9.61973e-10
-1.35104e-11
5.61192e-10
6.96081e-10
-2.78442e-10
-2.42711e-09
-4.89885e-09
-8.165e-10
6.79489e-09
-4.76211e-09
-1.83113e-09
7.13022e-09
-7.68851e-10
-1.57115e-09
-1.6975e-10
-2.17981e-10
-1.81282e-10
-7.71217e-10
3.39232e-09
3.70223e-09
-1.37682e-11
3.99316e-09
2.03688e-09
-7.81641e-11
7.93748e-10
2.57143e-08
7.81843e-08
5.85267e-08
-7.99381e-09
-5.27087e-11
1.6981e-08
5.92906e-09
7.39158e-10
4.67916e-10
-4.18526e-09
-1.29081e-08
-7.11084e-09
1.1547e-09
7.64071e-10
4.5887e-09
3.68689e-09
-9.81392e-10
1.26792e-09
3.32374e-09
-3.19657e-10
-4.76708e-09
-7.39664e-09
-5.64511e-09
2.67795e-09
-5.68902e-09
-7.49506e-09
1.17601e-08
-1.17534e-09
-1.90855e-10
-7.65816e-09
-1.63757e-08
-7.64238e-09
-2.62577e-09
2.88836e-11
-3.1342e-10
2.16535e-10
-4.19168e-10
1.3801e-09
3.55681e-09
-1.34583e-11
1.1306e-08
3.49632e-08
2.99739e-08
-3.07598e-09
-7.51499e-09
-1.88762e-09
-1.70958e-09
1.21324e-09
7.22335e-10
2.90127e-10
-3.021e-09
-4.4379e-09
-1.33385e-09
8.92006e-10
1.11227e-09
-2.21742e-09
-5.73802e-09
-7.33686e-09
-5.9418e-09
-3.18182e-10
5.73602e-10
-3.65233e-09
-3.64712e-09
-1.49007e-10
-2.29766e-09
-1.06253e-08
-5.57843e-09
-1.62016e-09
-1.84945e-09
-2.4694e-10
-6.3148e-09
-8.41474e-09
-2.91109e-11
-4.44632e-10
-3.9135e-11
2.61231e-10
-3.27148e-10
4.49488e-09
6.03414e-09
-1.09119e-10
2.04713e-08
4.2631e-08
2.68997e-08
2.74129e-09
-4.56192e-09
-4.50656e-09
-1.59165e-09
4.45558e-09
3.30151e-09
1.6665e-10
1.10331e-11
-8.91973e-10
-2.20105e-09
-1.78449e-09
1.05723e-10
9.6757e-10
-1.86306e-10
-7.14804e-10
1.48821e-09
3.1832e-09
7.59836e-10
-1.67616e-09
1.36985e-10
-3.75729e-10
-5.00519e-09
-3.79198e-09
1.41873e-09
9.17044e-10
1.62205e-11
1.23634e-09
1.01381e-09
7.92852e-11
-3.92007e-10
-3.73592e-09
-1.18116e-10
6.99371e-09
5.66108e-09
1.59321e-09
1.42221e-09
-5.14743e-10
5.92919e-09
2.19823e-08
2.05524e-08
7.69018e-09
1.60991e-09
7.14565e-10
2.26102e-09
6.68262e-09
9.22929e-09
5.59464e-09
5.54319e-10
1.91675e-09
1.18157e-08
2.44203e-08
2.46723e-08
1.16748e-08
1.79814e-09
-5.96532e-10
-7.39065e-10
2.54539e-09
6.46109e-09
3.11516e-09
1.26676e-10
5.12179e-09
8.18935e-11
-7.87236e-09
-2.66038e-09
-3.95349e-10
-5.09235e-09
-7.79208e-09
-5.37277e-09
-4.31179e-10
-1.02264e-14
-1.15221e-12
-4.92039e-12
-2.41635e-12
-8.67379e-14
4.19943e-13
-2.24152e-13
2.84383e-12
6.41893e-12
4.43418e-12
1.85504e-12
9.74368e-13
1.10981e-12
4.56334e-13
3.27576e-13
2.19512e-12
3.59175e-12
5.46306e-12
4.40866e-12
1.65741e-13
6.03803e-12
8.2561e-12
1.71426e-12
-5.5731e-12
-7.00712e-12
-8.29088e-12
-9.73528e-12
-1.06808e-11
-5.48268e-12
-3.09531e-13
4.89827e-14
2.08289e-14
1.68609e-12
3.56897e-12
2.21734e-12
9.29768e-12
1.25729e-12
2.74069e-13
1.78211e-13
1.03543e-14
-3.2711e-11
-8.55316e-11
-3.81829e-11
-1.03301e-11
-8.90974e-11
-6.3026e-11
-1.86786e-12
2.84182e-11
2.45726e-11
2.16072e-11
1.25857e-11
-3.48783e-11
-1.43078e-10
-1.41287e-10
-4.76449e-11
2.46559e-10
8.97866e-10
1.41328e-09
1.00887e-09
1.85029e-10
-1.85254e-10
-9.42577e-11
-4.81971e-12
-2.20337e-11
2.01861e-11
9.953e-11
-8.64612e-11
-2.19931e-10
-4.09494e-11
-2.8223e-11
-4.93599e-11
1.58632e-10
2.18912e-10
1.77988e-11
-3.6042e-11
7.20618e-12
1.58614e-11
-2.79414e-11
2.22465e-11
9.21435e-12
-4.76314e-10
-7.50057e-10
-1.99342e-10
-1.27096e-10
-7.43491e-10
-3.75669e-10
1.95795e-10
1.09275e-10
-2.18197e-11
-2.0997e-10
-2.72246e-10
-7.36804e-12
-7.20411e-10
-1.40183e-09
-9.04899e-10
1.76797e-09
6.60652e-09
1.01916e-08
7.27292e-09
9.04991e-10
-1.65967e-09
-1.5642e-09
-2.01928e-10
9.12336e-12
5.56882e-10
1.7879e-09
7.72076e-10
-1.11268e-10
-1.53993e-11
-8.25304e-11
7.95556e-11
1.05412e-09
1.3339e-09
3.80583e-10
-3.00033e-10
-4.52863e-11
-3.35322e-12
-2.85567e-11
7.2774e-11
-5.56718e-12
-1.30322e-09
-2.39897e-09
-5.60313e-10
-3.75147e-10
-1.86495e-09
-1.18978e-09
3.95866e-10
3.41535e-11
4.26644e-10
-2.44219e-10
-1.42827e-09
-1.2576e-10
-1.13167e-09
-3.73804e-09
-3.70582e-09
6.91817e-10
7.80663e-09
1.27257e-08
7.83943e-09
-3.89877e-11
3.73805e-09
1.26955e-09
1.27876e-10
4.8848e-11
1.83081e-09
5.66343e-09
1.41589e-09
2.77419e-10
6.32206e-10
-2.67867e-10
6.58879e-10
2.14765e-09
1.59217e-09
5.53891e-11
3.62844e-10
1.56147e-09
5.87984e-10
-1.90223e-12
-1.30906e-12
3.64174e-11
-1.67684e-09
-5.27915e-09
-1.53947e-09
-7.6123e-10
-3.6585e-09
-2.66045e-09
4.89959e-10
-1.17659e-10
2.17005e-09
2.70507e-09
-3.21361e-09
-1.50773e-09
-9.48376e-10
-8.41092e-09
-1.19585e-08
-6.2447e-09
3.76144e-09
1.17107e-08
8.45689e-09
1.0089e-09
2.5412e-08
1.94643e-08
2.37401e-09
2.40496e-10
3.93841e-09
1.50485e-08
3.92767e-09
1.0341e-09
3.19921e-09
-1.69941e-10
7.29963e-10
2.88987e-09
1.66743e-09
-5.77773e-11
2.18353e-09
6.82151e-09
4.14208e-09
-8.38575e-13
5.98776e-10
-8.14687e-11
-1.46157e-09
-9.11429e-09
-4.71946e-09
-6.88181e-10
-6.37407e-09
-5.14574e-09
1.62531e-10
9.90853e-11
3.32028e-09
1.10942e-08
-1.90767e-09
-6.16883e-09
-5.41787e-11
-1.35554e-08
-2.96259e-08
-2.4843e-08
-8.8609e-09
6.83955e-09
1.10268e-08
3.5849e-10
4.83551e-08
5.95631e-08
1.15114e-08
4.33569e-10
7.6851e-09
3.0859e-08
1.13089e-08
4.49921e-10
5.57127e-09
1.30212e-09
-1.19261e-10
2.18562e-09
1.10921e-09
-7.54463e-11
2.98694e-09
1.10976e-08
1.09406e-08
7.18303e-10
2.0804e-09
7.46205e-10
-1.1424e-09
-1.0232e-08
-9.93098e-09
-1.88025e-10
-8.59777e-09
-7.29101e-09
1.5882e-10
1.22587e-09
2.33966e-09
1.85669e-08
1.17823e-08
-8.38565e-09
-5.68785e-10
-1.50722e-08
-4.8311e-08
-4.89489e-08
-2.63213e-08
4.88209e-11
1.2724e-08
-2.2171e-10
6.90319e-08
1.30696e-07
4.32916e-08
1.96173e-10
1.74602e-08
4.86991e-08
1.86332e-08
-6.63591e-10
4.09305e-09
1.69455e-09
-3.07102e-10
5.1345e-10
1.78008e-11
9.82081e-10
4.58473e-09
1.36473e-08
1.84424e-08
5.02409e-09
1.30504e-09
4.36802e-09
7.41576e-10
-7.54312e-09
-1.47992e-08
-6.28021e-11
-1.18943e-08
-1.05523e-08
1.20875e-09
2.24159e-09
-1.57408e-10
1.70902e-08
3.03396e-08
4.21533e-09
-1.17201e-09
-1.24276e-08
-5.60069e-08
-6.52682e-08
-3.84677e-08
2.66553e-09
2.06488e-08
-4.74776e-10
8.99744e-08
2.26464e-07
1.07814e-07
7.23681e-10
3.24167e-08
6.39268e-08
1.71822e-08
-3.60041e-09
1.37139e-09
3.48701e-10
-1.14554e-13
5.74646e-10
2.18043e-10
3.66161e-09
8.36686e-09
1.61681e-08
2.26291e-08
1.23305e-08
-3.62528e-10
4.7287e-09
1.9392e-09
-2.95275e-09
-1.11136e-08
-1.13385e-10
-1.60859e-08
-1.67811e-08
1.49457e-09
7.07389e-10
-5.62859e-09
1.00718e-08
3.83779e-08
2.416e-08
-1.93355e-10
-3.4377e-09
-3.65573e-08
-5.34067e-08
-2.52346e-08
2.41486e-08
3.56532e-08
-2.87667e-10
1.17686e-07
3.34624e-07
1.99432e-07
3.98217e-09
4.84534e-08
6.70086e-08
-3.12173e-10
-1.00931e-08
-1.13006e-09
-5.43174e-10
5.27135e-11
4.628e-10
9.50714e-11
2.35341e-09
7.49686e-09
1.70951e-08
2.42686e-08
1.70015e-08
2.11685e-09
-3.56256e-10
-6.91517e-10
-3.46591e-10
-4.30565e-09
1.22512e-10
-1.41702e-08
-1.43228e-08
5.82143e-10
-4.39406e-10
-4.64554e-09
5.97625e-09
3.47236e-08
3.2429e-08
-3.27399e-09
8.39496e-09
1.68441e-09
-1.70893e-08
6.77375e-09
5.09968e-08
4.55968e-08
4.20745e-11
1.4548e-07
4.30842e-07
2.93363e-07
9.01444e-09
5.88471e-08
4.01105e-08
-3.01366e-08
-1.59642e-08
-2.33663e-09
-9.49142e-10
-9.57686e-10
-1.78613e-09
-4.96063e-11
2.79469e-09
2.22614e-09
1.00032e-08
2.08457e-08
1.76624e-08
6.0189e-09
-1.50034e-09
8.18153e-10
9.07329e-10
-1.2195e-09
4.78212e-09
-1.07594e-08
-1.51737e-08
-1.80243e-09
2.81036e-10
1.24363e-08
2.86239e-08
4.37665e-08
3.80088e-08
-2.7139e-09
1.63223e-08
2.85386e-08
1.33688e-09
8.42985e-09
4.87039e-08
3.38628e-08
1.1662e-09
1.4298e-07
4.45383e-07
3.42292e-07
1.25847e-08
4.39643e-08
-1.35627e-08
-4.28338e-08
-1.34407e-08
-2.09986e-09
-1.65045e-09
-3.63786e-09
-7.12147e-09
-9.17817e-10
8.14877e-09
2.22742e-09
2.7595e-09
1.24073e-08
1.32206e-08
7.29252e-09
2.96288e-09
1.67608e-08
6.44009e-09
4.83238e-09
1.16355e-08
-3.47633e-08
-4.22777e-08
-1.11231e-08
-1.04923e-10
5.65587e-09
3.62933e-08
7.10433e-08
6.39467e-08
5.17395e-09
1.40227e-08
3.81455e-08
-1.03533e-08
-3.35059e-08
-7.11219e-10
4.4075e-10
2.06097e-09
8.73019e-08
3.50059e-07
3.18839e-07
1.66925e-08
1.83477e-08
-2.79159e-08
-2.84978e-08
-9.01739e-09
-2.29529e-09
-2.59978e-09
-7.32051e-09
-1.57074e-08
-5.23502e-09
1.77366e-08
8.72319e-09
-3.82686e-10
6.09668e-09
6.51114e-09
4.62884e-09
8.32284e-09
3.94537e-08
2.39565e-08
6.33964e-09
1.06447e-08
-5.75368e-08
-4.9487e-08
-1.29416e-08
-7.09657e-10
8.04355e-11
1.30794e-08
7.50767e-08
1.05738e-07
2.24206e-08
6.15722e-09
3.62275e-08
-3.12304e-08
-9.50428e-08
-9.12549e-08
-3.61942e-08
-1.60216e-09
-2.30633e-09
2.02474e-07
2.46356e-07
1.46681e-08
2.03914e-08
-1.16259e-09
-1.69798e-08
-8.02649e-09
-2.27306e-09
-2.25462e-09
-7.68923e-09
-2.04834e-08
-1.5065e-08
2.32455e-08
2.38452e-08
-4.94186e-11
1.91087e-09
3.01702e-09
1.5082e-09
9.57955e-09
3.88721e-08
3.1509e-08
2.31018e-09
2.551e-08
-7.73873e-09
-1.47915e-08
-3.74897e-09
-3.30367e-10
-2.47077e-11
1.30442e-09
4.11438e-08
1.27102e-07
5.28572e-08
-2.77482e-09
3.19412e-08
-4.26711e-08
-1.43167e-07
-1.51391e-07
-5.50106e-08
-3.00555e-09
-5.58258e-08
6.02383e-08
1.33961e-07
7.41353e-09
1.61886e-08
-5.17626e-09
-1.9476e-08
-8.91617e-09
-3.04515e-09
-1.13004e-09
5.37983e-10
-4.58084e-09
-1.44896e-08
1.3683e-08
3.63909e-08
6.35769e-09
-3.27453e-09
1.57058e-09
1.05174e-09
7.52433e-09
2.25453e-08
1.34085e-08
1.94302e-09
4.01935e-08
2.85902e-08
3.32884e-09
-8.71816e-11
-3.92522e-11
-2.1552e-11
3.96147e-11
1.03921e-08
8.54947e-08
7.49443e-08
-7.44389e-09
3.08166e-08
-3.81137e-08
-1.34703e-07
-1.31514e-07
-5.0969e-08
-6.37768e-10
-4.91034e-08
-2.54822e-09
6.53001e-08
9.00104e-09
-8.16605e-10
-1.18409e-08
-2.14359e-08
-1.86596e-08
-8.81201e-09
1.87719e-09
8.91413e-09
1.17698e-08
1.51942e-09
3.27392e-09
3.07902e-08
1.52214e-08
-5.87379e-09
-1.38421e-09
1.48107e-09
6.55568e-09
1.3361e-08
3.1251e-09
2.81881e-10
1.28192e-08
7.8002e-09
2.75034e-09
3.69988e-10
-8.14533e-10
-2.61178e-10
-9.52578e-11
3.05656e-09
5.05823e-08
7.11067e-08
-3.82198e-09
1.55329e-08
-3.45492e-08
-9.57581e-08
-9.21327e-08
-3.96293e-08
-3.55591e-10
-2.82456e-08
-2.04764e-08
2.91048e-08
6.58264e-09
1.62261e-09
1.26234e-10
-1.87646e-08
-2.14768e-08
-3.30913e-09
7.90272e-09
2.49805e-09
-5.1949e-09
-2.9925e-09
1.10337e-09
1.2178e-08
8.45285e-09
-9.6776e-09
-5.91478e-09
6.94047e-10
6.48662e-09
8.627e-09
1.25585e-09
7.89013e-10
3.36086e-10
-6.54258e-10
4.33917e-09
2.22004e-09
-2.03972e-09
-2.36326e-09
-1.58137e-09
9.93176e-10
3.85035e-08
6.84168e-08
5.91983e-09
7.12328e-09
-1.64326e-08
-6.54262e-08
-6.52625e-08
-2.76058e-08
-9.79862e-10
-1.37124e-08
-2.06224e-08
6.42061e-09
1.0644e-09
4.61346e-09
-2.38203e-10
-1.68605e-08
-1.20115e-08
1.89479e-09
9.98776e-09
8.82321e-09
-7.19845e-09
-1.02705e-08
-1.9571e-09
-4.56425e-09
-1.56433e-08
-2.58203e-08
-1.68104e-08
-2.82725e-09
4.89081e-09
4.01849e-09
1.06723e-10
4.24305e-09
6.94155e-09
4.63474e-09
4.28086e-09
2.68335e-09
-2.65742e-09
-7.69348e-09
-6.52139e-09
2.00718e-09
3.10323e-08
4.78639e-08
5.73524e-09
7.87955e-09
2.06375e-10
-3.4544e-08
-2.8013e-08
-7.65685e-09
-2.99e-10
-5.23625e-09
-1.7084e-08
-6.36927e-09
4.01616e-10
-2.7533e-09
-1.86934e-08
-1.76604e-08
-4.37454e-09
5.21667e-10
1.40798e-08
2.84996e-08
7.12443e-09
-1.22035e-09
2.12928e-08
-7.27153e-09
-3.11362e-08
-3.62248e-08
-2.96877e-08
-1.35564e-08
-4.22355e-10
-3.45216e-09
-1.64497e-10
6.68392e-09
8.34217e-09
5.78423e-09
4.90712e-09
4.09694e-09
-1.28422e-09
-9.43819e-09
-7.34043e-09
1.00212e-08
2.2784e-08
1.56445e-08
-1.60384e-10
1.43409e-08
1.55102e-08
-1.88974e-09
-4.30841e-09
-1.00723e-09
2.22308e-11
-7.68736e-10
-3.68266e-09
-3.06075e-10
1.74537e-10
-7.01623e-09
-5.2257e-09
-2.75582e-10
2.28528e-09
7.14298e-09
3.47748e-09
8.58479e-09
6.42909e-09
1.13794e-09
6.18483e-08
4.10129e-08
-2.39533e-08
-2.54179e-08
-1.48627e-08
-1.16308e-08
-6.80827e-09
-8.94387e-09
-7.74996e-09
-1.38438e-09
4.93881e-09
4.5121e-09
4.99567e-11
2.05075e-09
4.7106e-10
1.42035e-09
2.24166e-08
3.89913e-08
2.09037e-08
1.40637e-09
3.74358e-09
1.65236e-08
1.2742e-08
1.59524e-09
-1.21711e-09
-6.98761e-10
8.40581e-11
3.04669e-10
-1.76211e-10
1.0448e-10
6.75741e-12
-1.30916e-09
-9.06934e-10
-2.27599e-09
-1.16603e-08
-2.61359e-08
-1.96697e-08
8.67064e-09
1.36951e-09
-9.1333e-09
6.12119e-08
8.37455e-08
1.23343e-08
-3.66573e-09
1.86175e-08
1.47374e-08
-8.91397e-10
-4.59141e-09
-1.84102e-09
7.14603e-10
3.88663e-10
1.83685e-09
-6.541e-09
-8.64602e-09
-5.72086e-10
-2.62681e-09
1.10799e-08
5.74821e-08
4.4365e-08
5.66892e-09
-1.01991e-08
-1.1561e-08
-1.16927e-09
3.33061e-09
1.13778e-09
-2.59235e-10
-1.05038e-10
-2.28494e-09
-2.96943e-09
-1.3527e-09
-5.10631e-11
-2.26451e-10
-3.57104e-09
-1.07527e-08
-1.88824e-08
-2.21799e-08
-1.25735e-08
5.57826e-09
-3.01837e-09
-6.46484e-09
4.62696e-08
4.92605e-08
9.56012e-09
3.57577e-09
2.406e-08
2.44043e-08
7.16148e-09
-7.07102e-10
-5.69325e-10
2.08271e-09
1.62454e-10
-1.05865e-09
-7.22757e-09
-7.21806e-09
-6.55589e-10
1.56717e-09
2.83983e-08
7.6171e-08
6.02144e-08
6.96357e-09
-1.67316e-09
-4.54986e-09
-1.1793e-09
3.27268e-09
1.18509e-09
-8.73585e-11
-3.14013e-10
-2.34275e-09
-3.24633e-09
-5.32427e-10
3.41192e-11
1.60443e-09
-1.48538e-09
-1.48257e-08
-2.43035e-08
-2.39853e-08
-1.63812e-08
-3.22402e-09
-2.13962e-09
-2.1604e-09
4.07526e-08
3.92673e-08
4.61647e-09
-7.1895e-09
-6.54617e-09
3.85841e-09
6.17859e-09
-1.23159e-09
5.45407e-12
2.81261e-10
-1.10075e-12
7.95611e-10
8.06704e-10
-3.22612e-11
-8.51514e-14
1.33797e-09
2.158e-08
6.20012e-08
5.10685e-08
7.56408e-09
-1.76523e-10
5.8424e-10
-5.96514e-11
-1.88271e-09
-1.76508e-09
9.83813e-10
5.92057e-10
-2.25577e-12
6.04646e-11
6.84088e-10
4.09761e-09
7.52317e-09
2.67509e-09
-5.67671e-09
-1.24239e-08
-1.66953e-08
-1.45033e-08
-4.29805e-09
-3.53682e-10
-2.40419e-09
4.84651e-09
5.72121e-09
4.40761e-10
-1.41551e-09
-1.36052e-08
-1.96111e-08
-9.80795e-09
-3.44222e-10
1.78797e-10
7.95912e-10
1.30906e-09
2.03207e-10
-4.99098e-10
-4.22821e-11
5.05182e-10
5.76766e-09
1.78151e-08
2.96069e-08
2.45519e-08
7.80542e-09
1.19984e-09
1.10001e-09
6.8884e-10
-1.25467e-09
2.84415e-09
9.35542e-09
9.86896e-09
7.04672e-09
6.21791e-09
6.5846e-09
5.48801e-09
3.45306e-09
2.03044e-09
7.40797e-10
-1.73071e-09
-4.83521e-09
-4.53666e-09
-3.89178e-10
-5.59075e-10
4.48061e-10
9.66936e-09
7.81563e-09
5.01583e-10
4.27286e-10
-6.79479e-10
-2.43961e-09
-1.67522e-09
-2.15205e-09
5.8026e-11
-2.8399e-10
4.27127e-10
3.36826e-10
-5.85947e-11
-5.85624e-11
-1.07059e-09
2.79312e-10
2.15321e-09
1.25108e-09
1.10698e-09
1.12786e-09
1.65175e-10
-6.62836e-10
-1.13448e-10
1.36872e-09
1.06858e-09
-2.51001e-10
3.31101e-09
1.2891e-08
1.68607e-08
8.83795e-09
7.97032e-10
-2.57467e-10
1.19508e-10
-5.90459e-11
1.84749e-09
4.11636e-09
1.57953e-09
2.64049e-10
4.11769e-09
-1.24158e-10
-4.92361e-09
-1.2136e-10
9.67822e-10
-3.88727e-09
-6.35447e-09
-7.10075e-09
-6.27417e-09
-2.15755e-13
-5.61833e-12
-2.03344e-12
-1.79853e-13
-1.0667e-12
-4.42411e-13
5.65647e-14
-2.8232e-13
-1.69515e-13
-3.20791e-16
-3.81362e-13
1.80303e-13
5.43242e-14
1.97693e-13
1.29519e-14
-3.15854e-15
2.7363e-13
4.66476e-13
1.02064e-12
2.14969e-12
1.92003e-12
-1.15878e-13
-3.14918e-13
-3.03186e-12
-1.11723e-11
-1.89912e-11
-1.51463e-11
-6.51182e-12
-4.22661e-13
-5.40452e-13
-3.25757e-12
-2.55219e-12
2.9017e-13
1.25055e-12
7.5562e-13
2.2257e-12
4.53802e-13
1.18942e-12
9.81601e-12
7.3456e-12
-2.11951e-10
-4.04361e-10
-1.71542e-11
-1.10316e-10
-1.16523e-10
-1.62726e-11
7.1356e-12
-1.58814e-11
-1.86255e-11
-9.24981e-13
-4.53943e-11
-7.59538e-11
-5.50897e-11
-4.84127e-11
-4.23575e-11
1.94926e-10
6.97291e-10
1.20761e-09
1.44385e-09
6.50883e-10
3.19582e-11
9.62871e-11
-2.31587e-11
-1.52991e-10
-5.68252e-10
-8.71084e-10
-5.14143e-10
-5.42709e-11
-8.8955e-11
-4.21312e-10
-3.84085e-10
-6.24619e-11
5.96859e-11
1.91148e-11
-5.78017e-12
2.91251e-11
7.28068e-11
8.13245e-11
5.07616e-11
-5.87189e-12
-1.12584e-09
-2.96597e-09
-4.25107e-10
-2.31911e-10
-3.37823e-10
-2.75325e-11
1.25394e-11
-2.16066e-11
-4.4078e-11
-3.82237e-11
-1.72788e-12
-2.06955e-10
-5.03416e-10
-7.08421e-10
-5.88716e-10
9.01105e-10
3.36592e-09
5.60611e-09
7.16604e-09
4.20818e-09
-1.37594e-10
8.7681e-10
1.98457e-10
-3.68496e-10
-1.3629e-09
-2.34166e-09
-1.47331e-09
-1.50317e-10
-3.55223e-10
-1.69341e-09
-1.67092e-09
-2.89457e-10
2.45341e-10
4.39585e-11
-4.90601e-11
-1.97949e-12
8.11672e-12
2.72143e-10
1.52081e-10
6.79693e-11
-3.43087e-10
-6.63766e-09
-1.43455e-09
-5.12534e-10
-9.69478e-10
-1.14199e-10
2.14638e-11
7.21216e-13
7.54674e-11
-8.31957e-11
-4.95676e-11
-2.24962e-10
-1.31777e-09
-2.27587e-09
-2.10571e-09
8.51076e-10
4.8697e-09
7.93744e-09
1.02883e-08
5.12582e-09
7.10672e-10
9.31216e-09
4.51178e-09
-4.76488e-11
-1.47321e-09
-3.21275e-09
-2.10363e-09
-1.0533e-10
-8.35791e-10
-2.79704e-09
-2.80387e-09
-9.45546e-10
-1.49864e-10
1.66808e-10
8.81972e-10
8.19882e-10
3.31926e-11
6.69628e-10
9.29769e-10
5.19488e-10
6.28783e-09
-8.57706e-09
-3.53321e-09
-8.67366e-10
-2.36839e-09
-4.61561e-10
-5.57943e-11
-3.23505e-10
1.19011e-10
-3.36551e-11
-3.22029e-10
-5.98932e-11
-2.28571e-09
-5.46751e-09
-5.81404e-09
-6.15996e-10
5.9583e-09
1.06244e-08
1.51529e-08
8.35149e-09
1.41799e-09
2.82333e-08
2.00133e-08
1.51447e-09
-1.26883e-09
-3.29078e-09
-3.26839e-09
-2.02665e-10
-1.44638e-09
-4.52154e-09
-4.94362e-09
-2.56095e-09
-7.01653e-10
7.86279e-10
3.41529e-09
3.88951e-09
8.83348e-10
9.176e-10
3.58201e-09
2.47603e-10
1.74603e-08
-3.16677e-09
-8.83816e-09
-3.90645e-10
-3.7301e-09
-8.90784e-10
1.54549e-11
-9.70658e-10
-4.65765e-10
1.02182e-10
-1.01755e-09
-5.02019e-11
-2.00524e-09
-8.76676e-09
-1.15865e-08
-4.74219e-09
5.15112e-09
1.3034e-08
2.18141e-08
1.53592e-08
-7.80621e-11
4.17393e-08
4.88672e-08
7.12626e-09
-1.67869e-09
-8.82981e-10
-3.74393e-09
-7.0126e-10
-1.66313e-09
-6.73167e-09
-8.12038e-09
-5.10862e-09
-1.36464e-09
9.40677e-10
4.87169e-09
7.52512e-09
3.35349e-09
3.72836e-10
7.39672e-09
5.57578e-10
1.78585e-08
2.22844e-08
-1.3786e-08
-4.02813e-11
-4.84765e-09
-1.83753e-09
4.61228e-10
-1.0955e-09
-2.0044e-09
1.65653e-11
-1.50632e-09
-7.03446e-10
2.21603e-10
-7.2098e-09
-1.23741e-08
-6.73827e-09
2.64519e-09
1.33337e-08
2.85605e-08
2.29248e-08
-4.00118e-10
5.50782e-08
9.15232e-08
2.21819e-08
-2.7497e-09
4.60987e-09
1.96652e-09
-1.97869e-10
-1.65866e-09
-7.28892e-09
-8.58607e-09
-5.06569e-09
-7.68768e-10
6.3633e-10
4.08711e-09
9.745e-09
7.42849e-09
4.52684e-11
8.09126e-09
5.95171e-09
5.4741e-09
4.92422e-08
-1.03521e-08
-1.52078e-09
-3.69046e-09
-2.30917e-09
1.2844e-09
7.63375e-11
-1.87062e-09
-8.6251e-10
-5.04452e-10
-7.06593e-10
4.65281e-09
1.89878e-09
-3.0808e-09
-2.06691e-09
2.02689e-09
1.33353e-08
3.73698e-08
3.36692e-08
-1.94143e-10
7.97543e-08
1.50947e-07
4.74137e-08
-2.99144e-09
8.55498e-09
1.08158e-08
1.95172e-09
-2.74423e-09
-7.19604e-09
-6.52765e-09
-1.89033e-09
4.04287e-10
-4.25596e-09
-2.83164e-09
8.21717e-09
1.09399e-08
1.70898e-09
4.17583e-09
1.12177e-08
-7.1604e-11
4.1136e-08
3.27724e-10
-3.96632e-09
-1.78276e-09
-1.67328e-09
2.31989e-09
9.35743e-10
1.11495e-10
-1.23854e-09
1.94842e-09
6.04101e-09
1.536e-08
1.59331e-08
5.81108e-09
1.5888e-09
3.69036e-09
1.78116e-08
5.04167e-08
4.56949e-08
3.88418e-10
1.16207e-07
2.18886e-07
8.00343e-08
-7.60381e-10
8.73692e-09
1.32868e-08
1.22384e-09
-6.41491e-09
-9.76037e-09
-6.32884e-09
4.43557e-10
6.84487e-10
-1.28142e-08
-2.02769e-08
-1.13647e-09