/*--------------------------------*- C++ -*----------------------------------*\
| =========                 |                                                 |
| \\      /  F ield         | OpenFOAM: The Open Source CFD Toolbox           |
|  \\    /   O peration     | Version:  5.0                                   |
|   \\  /    A nd           | Web:      www.OpenFOAM.org                      |
|    \\/     M anipulation  |                                                 |
\*---------------------------------------------------------------------------*/
FoamFile
{
    version     2.0;
    format      ascii;
    class       volScalarField;
    location    "50.4676134421789371";
    object      produv;
}
// * * * * * * * * * * * * * * * * * * * * * * * * * * * * * * * * * * * * * //

dimensions      [0 2 -3 0 0 0 0];

internalField   nonuniform List<scalar> 
60000
(
-1.13756e-10
-1.99492e-10
-1.17466e-10
-9.96275e-12
-1.50204e-11
-9.09877e-12
-5.95728e-12
-1.32528e-11
-2.29355e-12
2.06756e-11
-1.1225e-11
-7.02977e-11
-3.69105e-11
-3.69311e-11
-1.0424e-10
-1.42835e-10
-5.51101e-13
-3.08193e-10
-9.29483e-10
-1.04079e-09
-9.56643e-10
-4.57656e-10
-3.65023e-10
8.5672e-11
2.66143e-10
-6.4987e-10
-6.74228e-10
-4.03191e-10
-3.3631e-10
-1.91357e-10
-1.20229e-10
-2.45313e-10
-4.57031e-10
-4.09791e-10
-1.46346e-10
-2.33728e-11
-1.72788e-11
-1.33888e-11
2.27267e-12
-2.60658e-11
-2.9384e-09
-3.42821e-09
-5.96821e-10
-1.7713e-10
-1.03409e-09
-1.77421e-10
-8.50503e-11
-1.71263e-10
5.11601e-10
4.00009e-10
-1.68388e-09
-2.50426e-09
-3.59899e-10
-1.83913e-10
-6.54367e-10
-1.98092e-09
-6.24232e-09
-1.10542e-08
-7.7986e-09
-5.97633e-09
-1.00797e-08
-6.95355e-09
5.16829e-09
1.21937e-08
-1.31167e-08
-5.70679e-08
-6.04224e-08
-2.9697e-08
-9.57346e-09
-3.2602e-09
-6.7356e-10
-1.70134e-09
-3.12362e-09
-4.55756e-09
-3.17375e-09
-1.68612e-10
-4.02006e-10
-3.29298e-10
7.96469e-10
-4.81822e-10
-3.44119e-09
-8.20247e-09
-2.53533e-09
-5.09147e-10
-3.70028e-09
-9.82232e-10
-5.03503e-11
-4.08852e-10
6.93235e-10
1.78703e-10
-4.38096e-09
-7.05419e-09
-2.95241e-09
2.70322e-11
-2.67638e-09
-1.2586e-08
-3.26901e-08
-4.57892e-08
-1.77309e-08
-1.1854e-08
-4.88385e-08
-3.86658e-08
9.80202e-09
1.65812e-08
-5.12551e-08
-1.25337e-07
-1.06024e-07
-4.10516e-08
-1.08253e-08
-7.25005e-09
-1.22419e-09
-2.82277e-09
-5.08223e-09
-5.33485e-09
-4.6356e-09
-1.24828e-09
-6.33975e-10
-4.90729e-09
-4.74295e-09
-7.67033e-10
3.77385e-09
-6.06841e-09
-4.02899e-09
-5.35658e-10
-5.27533e-09
-1.30778e-09
1.57946e-09
5.24394e-10
1.08027e-10
-8.2555e-10
-6.31406e-09
-6.95255e-09
-4.50171e-09
-2.15839e-10
-3.21845e-09
-2.1808e-08
-5.3881e-08
-6.40687e-08
-1.06855e-08
-1.19008e-08
-9.78496e-08
-7.33451e-08
8.45022e-09
-1.10455e-08
-1.00049e-07
-1.33866e-07
-6.24768e-08
-1.71919e-09
-1.13927e-08
-3.31259e-08
-1.54703e-08
1.33532e-09
-1.89156e-10
6.8972e-10
1.92306e-09
-3.61331e-10
2.83679e-10
-4.13775e-09
-1.26421e-08
-3.5434e-09
1.1543e-08
1.07135e-08
-1.94033e-09
-2.47631e-10
-3.91951e-09
7.78227e-10
6.41624e-09
5.10728e-09
4.59667e-10
-6.67306e-10
-1.01028e-08
-1.13199e-08
-4.03309e-09
-1.7958e-09
-1.72832e-09
-3.433e-08
-8.40472e-08
-8.40139e-08
-1.04376e-09
-1.71177e-08
-1.93487e-07
-1.41966e-07
4.09242e-09
-4.64089e-08
-1.56166e-07
-1.42717e-07
-4.46425e-08
4.96624e-09
-1.42252e-08
-5.72485e-08
-4.62999e-08
-5.17759e-09
7.09408e-09
6.62077e-09
8.16431e-09
4.58472e-09
-2.07037e-09
1.05876e-09
-1.44208e-08
-1.00214e-08
2.42236e-09
2.56115e-08
1.40889e-08
1.32811e-09
-3.72567e-09
4.11475e-10
8.96249e-09
1.28907e-08
5.04449e-09
6.93652e-10
-3.27731e-09
-2.4773e-08
-1.15199e-08
-5.16802e-09
-6.97183e-10
-5.38461e-08
-1.34452e-07
-1.15221e-07
-8.68676e-09
-2.85251e-08
-3.43486e-07
-2.685e-07
-7.32525e-09
-7.73108e-08
-1.77778e-07
-1.00148e-07
-1.76607e-08
4.39441e-09
4.74517e-09
-1.49033e-08
-3.60944e-08
-1.85482e-08
1.22018e-09
6.69352e-09
6.77379e-09
6.28967e-09
-7.2733e-10
-4.6947e-09
-1.84077e-08
-2.24376e-08
-7.65595e-09
1.71734e-08
3.19448e-08
6.98579e-09
-3.11816e-09
-1.34914e-09
5.29751e-09
1.38122e-08
1.27611e-08
3.16568e-09
1.47798e-08
-3.11948e-09
-2.42223e-08
-1.72757e-08
8.7053e-11
-6.44611e-08
-1.83817e-07
-1.32172e-07
-1.20061e-08
-7.18789e-08
-5.27157e-07
-4.55653e-07
-2.51623e-08
-9.37123e-08
-9.67514e-08
2.19878e-08
2.68267e-08
6.54336e-09
4.68731e-09
7.42777e-09
-7.00178e-10
-1.03189e-08
-1.09697e-08
-8.25031e-09
-5.23278e-09
-2.4851e-09
-2.13157e-09
-7.94898e-09
-1.76493e-08
-2.52986e-08
-1.00862e-08
4.34874e-09
2.7756e-08
1.10146e-08
-4.25609e-09
-1.87465e-09
4.17127e-10
4.92791e-09
1.14031e-08
5.89243e-09
1.84642e-08
3.50371e-08
-2.89936e-08
-5.22659e-08
3.79275e-09
-5.52542e-08
-1.93625e-07
-1.31642e-07
-8.96569e-09
-1.08808e-07
-6.67566e-07
-6.95879e-07
-5.1561e-08
-6.15046e-08
2.13588e-08
1.04381e-07
4.60659e-08
8.05432e-09
-1.38991e-09
-2.39608e-09
-4.22231e-09
-3.715e-09
-2.73525e-09
-1.57711e-08
-2.77951e-08
-2.07909e-08
-9.40746e-09
-9.54667e-09
-1.41466e-08
-1.7762e-08
-5.7836e-09
-1.71754e-09
1.53868e-08
7.36528e-09
-8.5305e-09
-3.0088e-09
-5.96619e-10
-2.07642e-09
1.66791e-09
4.74139e-10
-6.56733e-10
-5.06389e-10
-6.57318e-08
-7.97815e-08
2.47764e-08
-2.70745e-08
-1.61602e-07
-1.12088e-07
-5.65214e-09
-8.20891e-08
-6.18284e-07
-8.60914e-07
-9.88443e-08
5.18104e-09
5.43626e-08
8.42811e-08
3.16274e-08
6.03717e-09
-7.96715e-09
-1.3079e-08
-1.4317e-08
-1.01741e-08
-7.8332e-10
-6.63127e-10
-2.04997e-08
-3.43492e-08
-2.11285e-08
-1.16514e-08
-1.25063e-08
-1.17752e-08
-6.04392e-09
-2.25757e-09
4.03802e-09
-7.24307e-09
-2.4908e-08
-6.94871e-09
-1.82783e-09
-5.80438e-09
-3.9274e-09
-2.0873e-09
-2.94626e-08
-9.21664e-08
-1.58049e-07
-6.18938e-08
4.13539e-08
-3.22572e-09
-8.31017e-08
-5.77521e-08
-3.50844e-09
-2.02491e-08
-3.40014e-07
-7.77675e-07
-1.53754e-07
7.02922e-08
-2.16639e-08
-2.58893e-08
1.53646e-09
1.16699e-09
-1.39131e-08
-1.80381e-08
-1.52329e-08
-5.29497e-09
4.17551e-09
2.96066e-09
-1.67534e-09
-1.31637e-08
-2.18562e-08
-1.6739e-08
-1.25029e-08
-1.11321e-08
-8.50763e-09
-5.13089e-09
-4.86417e-09
-4.34236e-08
-6.01049e-08
-1.64724e-08
-1.92569e-09
-7.99967e-09
-8.0376e-09
-9.8498e-10
-1.98622e-08
-1.30551e-07
-2.26589e-07
-5.3426e-08
1.80761e-08
1.68004e-08
3.03548e-08
1.31423e-08
9.88694e-10
6.60916e-09
-5.43986e-08
-4.38065e-07
-1.85747e-07
9.12706e-08
-1.55089e-07
-1.44675e-07
-2.12272e-08
-3.23545e-09
-1.46243e-08
-1.55436e-08
-9.82516e-09
5.27422e-09
1.61722e-08
7.12039e-09
-3.69451e-11
-3.18155e-10
-7.199e-09
-1.27158e-08
-1.1396e-08
-9.19212e-09
-5.65225e-09
-7.91138e-09
-9.97423e-09
-7.50645e-08
-7.95988e-08
-2.23736e-08
2.40658e-11
2.70369e-10
-6.40856e-09
-2.83015e-09
-4.47576e-09
-7.66262e-08
-2.05764e-07
-5.77972e-08
-6.78413e-09
1.94313e-08
9.99653e-08
7.37539e-08
1.00904e-08
5.53925e-09
2.76099e-08
-1.31203e-07
-1.62559e-07
5.29845e-08
-2.23418e-07
-1.73063e-07
-2.35601e-08
-3.24345e-09
-1.00271e-08
-8.4326e-09
8.80847e-11
1.86587e-08
3.03303e-08
1.44121e-08
-9.91852e-10
-2.5928e-09
-5.29533e-09
-7.33543e-09
-6.33267e-09
-4.20724e-09
-2.82365e-09
-5.77237e-09
-3.96502e-09
-5.45141e-08
-5.93098e-08
-2.20791e-08
-1.83762e-09
4.88074e-09
2.38072e-10
-3.34968e-09
-3.06503e-09
-3.58878e-08
-1.34914e-07
-6.31861e-08
-2.49176e-09
8.59578e-10
1.10119e-07
1.24628e-07
3.36915e-08
-2.84268e-09
6.50688e-09
-6.65238e-08
-1.0959e-07
1.00606e-08
-1.50286e-07
-9.2488e-08
-1.02006e-08
-1.04224e-09
-5.08019e-09
-1.78135e-09
8.51189e-09
2.90847e-08
4.3934e-08
2.59466e-08
1.91049e-09
-4.85895e-09
-5.20194e-09
-5.64008e-09
-5.19305e-09
-3.85418e-09
-7.07036e-09
-3.39374e-09
1.43567e-09
-1.27809e-08
-1.85232e-08
-1.03753e-08
-5.11731e-09
-5.73035e-10
3.65274e-10
-3.97947e-09
-4.22466e-09
-2.71147e-08
-1.029e-07
-8.10748e-08
5.9605e-09
-4.67164e-09
8.54486e-08
1.38623e-07
6.20882e-08
-9.68733e-09
-1.0212e-08
-7.88006e-08
-6.61391e-08
3.7759e-09
-1.9067e-09
-1.60912e-09
-2.48098e-09
-2.08882e-10
-1.71633e-09
3.24126e-11
4.07842e-09
2.22375e-08
4.22891e-08
3.44861e-08
1.28093e-08
-1.27291e-09
-3.07477e-09
-2.99048e-09
-4.79496e-09
-5.70335e-09
-8.9695e-09
-6.32958e-09
-5.55662e-11
-9.7425e-10
2.93603e-10
-1.92674e-09
-5.82337e-09
-3.88134e-09
-1.42322e-09
-3.30796e-09
-1.92355e-09
-1.57508e-08
-8.6213e-08
-1.15533e-07
-4.63143e-09
-7.96779e-09
4.01992e-08
8.80583e-08
4.47861e-08
-5.71839e-10
-2.33458e-08
-7.92902e-08
-8.57844e-08
-7.31485e-09
1.50534e-08
-5.53666e-09
-5.48194e-09
3.82848e-10
-3.77117e-10
-5.70609e-09
-1.19075e-08
-1.70681e-09
2.08819e-08
2.30068e-08
2.05406e-08
1.37007e-08
2.30005e-10
-1.08406e-09
-4.65114e-09
-4.72661e-09
-9.17219e-09
-1.22908e-08
-3.24441e-09
2.79807e-09
7.09948e-09
5.08061e-09
-5.94491e-10
-1.42986e-09
-6.62817e-10
-1.20809e-09
2.4501e-10
-1.36456e-08
-5.76938e-08
-9.45072e-08
-7.8502e-09
-2.05188e-08
-2.94209e-08
1.09562e-09
8.13002e-09
1.27766e-10
-2.87685e-08
-6.51715e-08
-7.60242e-08
-1.26429e-08
-1.03824e-08
-4.28601e-08
-2.72052e-08
-6.67498e-09
-3.5461e-09
-5.82953e-09
-1.2025e-08
-1.28894e-08
6.10009e-10
6.43121e-10
3.82543e-10
2.55274e-08
1.05639e-08
2.84852e-10
-3.51278e-09
-4.81296e-09
-6.65314e-09
-1.05284e-08
-3.27518e-09
5.6153e-09
1.60296e-08
1.41224e-08
2.5167e-09
9.87965e-12
-2.79249e-10
-3.96853e-13
-5.07948e-10
-1.44587e-08
-4.90271e-08
-4.12879e-08
6.29845e-09
-2.67041e-08
-3.10582e-08
2.44097e-09
2.53535e-09
-2.52975e-09
-2.48188e-08
-5.02687e-08
-4.29555e-08
-3.78335e-10
-3.85032e-08
-8.53439e-08
-3.8525e-08
1.68147e-09
9.82261e-09
1.21534e-08
8.80591e-11
-9.36552e-09
-3.01007e-09
-6.56646e-09
-2.70165e-08
2.34482e-09
1.95598e-08
-1.55415e-10
-4.60763e-11
-2.31083e-09
-3.51903e-09
-5.33558e-09
6.18221e-10
1.23832e-08
2.64763e-08
1.55005e-08
-1.38402e-10
1.74568e-09
-2.31985e-09
-1.52731e-09
-1.11605e-09
-1.6393e-08
-5.03774e-08
-2.95733e-08
3.72079e-09
-1.19569e-08
1.30567e-08
1.99844e-08
-2.85318e-09
-4.53597e-09
-2.28202e-08
-3.94615e-08
-2.17107e-08
8.66062e-09
6.49914e-09
1.16786e-09
6.02497e-09
8.60859e-09
1.92601e-08
-1.73568e-09
-3.6445e-08
-1.56024e-08
4.1929e-09
-5.52304e-09
-9.94934e-09
-2.22434e-08
-4.96905e-09
-5.60117e-09
-4.09083e-09
2.2934e-09
6.09621e-11
3.18943e-09
1.01492e-08
1.82659e-08
2.53651e-08
-9.76654e-10
-1.21102e-08
2.11214e-09
-2.18716e-09
-3.53971e-09
-1.83075e-09
-1.16104e-08
-2.75193e-08
-1.71523e-08
-9.96779e-10
3.07312e-09
2.21996e-08
1.44131e-08
-7.16572e-09
-2.94945e-10
-4.09728e-09
-9.9623e-09
-9.749e-11
5.77608e-10
4.80647e-09
1.19801e-08
1.01087e-08
5.35901e-09
5.01538e-09
4.92456e-09
-2.53129e-08
-1.27447e-08
2.61292e-08
-3.36552e-08
-1.74235e-08
9.95077e-09
-8.53503e-09
-1.05217e-08
-8.19318e-09
-2.55367e-09
7.53933e-09
1.08677e-08
5.42243e-09
1.86765e-08
9.07728e-10
-5.14398e-08
-3.69782e-08
1.67033e-09
7.54999e-09
9.27901e-09
3.87855e-09
-4.40774e-09
-4.39791e-09
2.47318e-10
-1.1438e-09
2.27233e-09
1.38401e-08
1.41602e-08
7.62126e-10
-1.64502e-09
9.82769e-10
-4.4772e-09
-2.52324e-09
2.94437e-10
3.08484e-09
2.48317e-09
-2.9951e-10
6.82124e-09
2.37442e-08
2.83039e-08
4.50113e-11
-2.21285e-08
1.20859e-08
-2.65223e-08
-5.77937e-08
9.51453e-10
8.63176e-09
-2.2467e-09
-1.1724e-09
1.21839e-09
5.29021e-09
1.16787e-08
4.15993e-09
2.5254e-10
-7.1586e-09
-3.54839e-08
-2.33668e-08
8.63876e-10
-5.68873e-09
-7.41489e-09
-1.42232e-08
-6.04397e-09
6.4593e-09
-1.64185e-09
-7.02311e-09
-4.736e-09
5.02047e-10
9.1697e-09
1.35787e-08
5.94137e-09
-1.5561e-10
-4.90423e-10
-1.93365e-09
-2.27321e-09
1.09186e-10
6.92323e-10
-1.62933e-09
-3.02125e-09
-6.46382e-10
5.39415e-09
3.47738e-09
-1.16798e-08
-3.27248e-09
-1.39874e-08
-4.50509e-08
-1.01145e-08
4.86107e-09
1.26867e-09
-1.20545e-09
-1.83184e-10
-3.01484e-09
-4.64628e-09
-3.38713e-09
-5.58142e-10
-8.05432e-09
-1.39793e-08
-7.46051e-09
-8.80779e-10
-2.33267e-08
-4.91223e-08
-3.90182e-08
-1.22124e-08
-8.37679e-09
-1.47391e-08
-4.53684e-09
-3.7711e-10
7.10396e-10
2.00984e-09
8.5931e-09
7.19487e-09
2.75726e-11
2.93136e-09
-1.60233e-10
-6.52839e-09
-3.34274e-10
3.07122e-09
-2.42325e-09
-1.97582e-09
5.80782e-09
1.18342e-08
8.00032e-09
-4.8052e-09
-3.20489e-09
-6.08039e-10
-3.26495e-08
-2.21359e-08
8.74632e-11
-1.39427e-08
-2.6007e-08
-1.71105e-08
-5.53879e-09
1.88813e-10
3.59066e-10
-3.15384e-10
-1.32233e-08
-2.29537e-08
-7.08162e-09
-1.39664e-10
-2.10746e-08
-3.26983e-08
-1.33018e-08
-1.23692e-09
-5.98205e-09
-9.17518e-10
2.05537e-09
-6.32786e-09
-5.70059e-09
-3.37753e-09
-3.78927e-09
-2.0068e-09
-1.51523e-09
-1.9479e-09
-1.52909e-09
1.55766e-09
1.55496e-09
-2.43579e-09
-4.78018e-09
-4.66782e-09
1.06e-09
6.56601e-09
4.87915e-09
-8.9691e-11
-1.07751e-09
-1.56994e-09
-8.06771e-09
-1.07074e-08
-3.03282e-09
-8.93364e-10
-7.56228e-09
-1.10123e-08
-3.56444e-10
-1.19758e-09
-1.19939e-10
-5.49124e-09
-2.0952e-08
-1.81355e-08
8.11251e-09
-4.50794e-09
-5.81861e-08
-7.57813e-08
-4.22614e-08
-5.91044e-09
3.17686e-09
3.06823e-09
3.40786e-09
-1.34654e-09
-2.96038e-09
1.41707e-10
-4.64612e-10
-2.45692e-09
-3.55322e-09
-5.96997e-09
-9.78359e-09
-1.16286e-08
-1.04271e-08
-9.30664e-09
-1.06505e-08
-1.15118e-08
-7.06053e-09
-9.03815e-10
3.97928e-10
-2.27112e-10
-2.22921e-09
-8.45758e-09
-8.3905e-09
-2.87401e-09
-6.53564e-10
-9.79793e-10
-1.24901e-09
-2.04986e-10
-1.82618e-09
-6.92914e-09
-8.31476e-09
-4.67449e-09
7.9681e-10
6.23769e-09
1.08577e-08
-9.67402e-10
-2.35758e-08
-2.9026e-08
-2.16933e-08
-1.18369e-08
-5.26628e-09
-3.97093e-09
-7.828e-09
-1.25996e-08
-1.09288e-08
-4.49515e-09
-1.36167e-10
-1.83581e-09
-9.04821e-09
-1.80599e-08
-2.06519e-08
-1.2716e-08
-2.86086e-09
5.7727e-10
-1.32618e-09
-7.34489e-09
-9.20169e-09
-2.80519e-09
1.07378e-09
1.88469e-09
3.9454e-09
2.77843e-10
-3.35293e-09
2.19062e-09
9.772e-09
1.23352e-08
1.00303e-08
4.5503e-09
2.43865e-12
-6.48535e-11
-1.89029e-10
-1.12392e-10
-3.56403e-11
1.27515e-11
-2.27616e-11
-2.19719e-10
-3.40664e-10
-2.4817e-10
-1.30155e-10
-8.24228e-11
-8.53763e-11
-6.41902e-11
-3.84433e-14
1.50096e-10
2.32298e-10
1.54858e-10
1.13032e-10
-9.5924e-12
-4.49403e-10
-5.7557e-10
-3.60441e-10
-5.71383e-10
-7.74171e-10
-8.43235e-10
-8.13182e-10
-7.9768e-10
-4.69625e-10
-1.02751e-10
1.0166e-10
1.60009e-10
5.95815e-11
-6.88294e-11
-1.44588e-10
2.54456e-11
3.77094e-11
-6.33193e-12
-2.38289e-12
-8.36289e-12
-4.24135e-10
-9.27671e-10
-5.74201e-10
1.16481e-10
5.47122e-11
-6.01102e-10
-1.28757e-09
-1.44658e-09
-6.99412e-10
-6.22518e-10
-4.74232e-10
1.17389e-10
-2.31839e-10
-1.49514e-09
-4.16998e-09
-1.11289e-08
-2.17295e-08
-2.93391e-08
-2.58993e-08
-1.24747e-08
-4.64695e-09
-3.41148e-09
-2.29811e-09
-2.22789e-09
-6.13353e-09
-1.20331e-08
-1.26601e-08
-8.99356e-09
-2.84193e-09
-1.26474e-09
-7.47718e-09
-1.16211e-08
-1.14649e-08
-5.87077e-09
-1.56853e-09
1.29868e-10
2.36326e-09
-2.13533e-10
-5.11453e-10
-2.37667e-10
-2.48364e-09
-4.07315e-09
-1.50319e-09
-2.51989e-10
-3.87031e-09
-7.58084e-09
-6.49388e-09
-2.76697e-09
-6.32883e-10
-3.15488e-09
-4.09912e-09
3.50885e-10
2.35847e-09
-2.50235e-09
-1.66995e-08
-4.52785e-08
-7.69553e-08
-9.0961e-08
-7.02539e-08
-2.41755e-08
-2.90162e-09
-1.25933e-08
-5.60394e-09
1.42817e-09
-1.58324e-08
-3.37669e-08
-2.2105e-08
-7.81797e-09
-1.07797e-09
-3.44259e-09
-2.25832e-08
-3.43966e-08
-2.92453e-08
-1.46258e-08
-4.85401e-09
-4.20554e-09
-1.18566e-09
1.434e-09
-2.38186e-09
-8.02212e-10
-3.07382e-09
-7.52417e-09
-2.53236e-09
-1.31115e-09
-1.11041e-08
-1.78644e-08
-1.10901e-08
-1.73403e-09
-1.36784e-09
-9.60077e-09
-9.3473e-09
-2.2231e-09
2.17357e-09
-4.35857e-09
-2.46412e-08
-5.70143e-08
-7.84036e-08
-7.16599e-08
-3.61877e-08
-8.72205e-10
-1.59812e-08
-5.77724e-08
-2.6705e-08
2.39782e-09
-3.25566e-08
-5.05633e-08
-1.61925e-08
9.99152e-10
5.06704e-10
6.88274e-10
-1.75823e-08
-3.13752e-08
-1.99536e-08
-3.54369e-09
-5.5536e-09
-2.80437e-08
-2.67649e-08
5.50948e-09
5.20493e-10
-1.10425e-09
1.3647e-10
-7.9529e-09
-4.40163e-09
-2.22548e-09
-2.07173e-08
-3.48369e-08
-2.29964e-08
-2.78592e-09
-3.60306e-09
-2.19961e-08
-1.82885e-08
-7.20618e-09
2.61968e-09
-2.01925e-09
-3.03655e-08
-7.22347e-08
-8.64638e-08
-6.57959e-08
-2.25581e-08
-3.29219e-09
-8.01876e-08
-1.55824e-07
-8.53978e-08
1.02055e-09
-6.1265e-08
-8.42112e-08
-2.20405e-08
2.10703e-09
-5.13836e-09
-4.65219e-11
-7.25241e-09
-2.099e-08
-1.27624e-08
3.43734e-11
-8.4774e-09
-5.44034e-08
-8.25582e-08
-3.18269e-09
2.32473e-08
-4.65948e-10
-9.52201e-10
-3.64402e-09
-9.15723e-09
-3.02735e-10
-2.40866e-08
-4.86807e-08
-3.99846e-08
-6.75519e-09
-8.37501e-09
-3.41608e-08
-3.74625e-08
-2.06946e-08
8.95556e-10
1.00246e-08
-2.43131e-08
-8.26466e-08
-9.74834e-08
-7.7005e-08
-3.34801e-08
-5.58432e-11
-1.28986e-07
-2.77375e-07
-1.88329e-07
-2.90045e-09
-9.13541e-08
-1.18719e-07
-3.1302e-08
4.33187e-09
4.91136e-09
3.46823e-09
1.00339e-09
-8.74088e-09
-6.14502e-09
-2.38454e-11
-1.02197e-08
-4.91369e-08
-1.05982e-07
-3.97464e-08
5.69868e-08
1.71801e-08
-1.30875e-09
3.36584e-09
-8.27205e-09
1.16095e-09
-1.02444e-08
-4.17336e-08
-4.44436e-08
-9.30933e-09
-1.36738e-08
-5.26459e-08
-4.78301e-08
-3.44019e-08
-5.79028e-09
1.98276e-08
-1.57046e-08
-8.22243e-08
-9.60421e-08
-8.48442e-08
-4.84397e-08
1.99405e-09
-1.39078e-07
-4.17563e-07
-3.25859e-07
-1.07906e-08
-9.78083e-08
-9.98839e-08
-1.2387e-08
5.21497e-09
1.19493e-08
9.72685e-09
5.31953e-09
7.53835e-10
-2.93588e-10
-3.87335e-09
-1.87938e-08
-4.63283e-08
-9.0692e-08
-8.04018e-08
4.61361e-08
5.77626e-08
2.57172e-08
-1.11243e-08
8.14524e-09
-6.32101e-10
1.84579e-08
-3.2915e-09
-2.85628e-08
-1.01341e-08
-6.50732e-09
-8.44834e-08
-7.39328e-08
-2.44566e-08
-6.39667e-09
1.7822e-08
-2.19068e-08
-8.14213e-08
-9.83228e-08
-1.00028e-07
-6.38701e-08
4.99898e-10
-1.20984e-07
-5.34149e-07
-4.88826e-07
-2.397e-08
-6.70198e-08
-3.62227e-08
2.06644e-08
1.14825e-08
1.21555e-08
9.55891e-09
5.86336e-09
3.1118e-09
3.06758e-10
-3.84896e-09
-2.22889e-08
-5.07956e-08
-7.42457e-08
-8.02623e-08
-3.90026e-09
6.37587e-08
5.44323e-08
-3.66488e-08
6.11207e-09
-4.57493e-10
4.15699e-08
4.10697e-08
-5.46269e-09
-1.4283e-08
5.17957e-09
-7.74044e-08
-1.52065e-07
-3.2584e-08
7.37655e-09
-3.3484e-09
-2.78803e-08
-6.3142e-08
-7.99842e-08
-9.35482e-08
-6.47971e-08
-7.49223e-10
-1.021e-07
-5.76939e-07
-6.31556e-07
-4.5455e-08
-1.74157e-08
2.08849e-08
4.00008e-08
1.99629e-08
1.40409e-08
9.76472e-09
9.01657e-09
9.20031e-09
1.01349e-09
-4.17574e-09
-7.01775e-09
-3.40302e-08
-6.34248e-08
-6.15161e-08
-2.87572e-08
2.01574e-08
2.89066e-08
-3.73438e-08
-1.91934e-08
-1.38624e-09
2.07241e-08
3.09271e-08
1.28184e-08
-8.52286e-09
2.37222e-09
-2.95005e-08
-1.60632e-07
-9.8268e-08
4.35014e-09
-5.07769e-08
-3.87612e-08
-1.33627e-08
-2.31969e-08
-5.8227e-08
-4.90259e-08
-7.6571e-10
-9.96153e-08
-5.13577e-07
-6.69883e-07
-6.76521e-08
3.45528e-08
4.09933e-08
3.34996e-08
2.22647e-08
1.38121e-08
9.75054e-09
1.36131e-08
2.13668e-08
1.56595e-08
-1.52757e-09
-1.86224e-09
-5.49891e-09
-3.34289e-08
-4.19216e-08
-2.4469e-08
-1.05876e-08
-3.65178e-08
-5.57596e-08
1.26035e-08
-3.59986e-08
-7.64864e-08
-1.63192e-08
1.28975e-08
6.32618e-10
-7.40797e-09
-2.68405e-09
-9.84971e-08
-1.3181e-07
-9.73462e-10
-6.92523e-08
-7.06697e-08
-3.6686e-09
1.03756e-08
-2.3834e-08
-2.20428e-08
-2.68366e-09
-1.05374e-07
-3.74617e-07
-5.59516e-07
-8.19557e-08
5.36541e-08
-8.9397e-09
-5.62233e-10
1.37765e-08
1.04394e-08
9.92173e-09
1.74023e-08
3.50426e-08
4.02457e-08
1.32628e-08
-2.22451e-09
7.85727e-10
-1.22697e-08
-2.23115e-08
-1.3071e-08
-1.41114e-08
-7.62638e-08
-1.24255e-07
6.41619e-08
-1.5861e-07
-2.1228e-07
-4.33356e-08
1.29105e-08
2.78201e-09
-9.76657e-09
4.65026e-09
-2.50212e-08
-1.25386e-07
-2.48106e-08
-3.58715e-08
-1.11675e-07
-4.21268e-08
2.29477e-08
3.32277e-08
1.64177e-08
-4.30043e-09
-8.00528e-08
-2.69782e-07
-4.18335e-07
-9.04745e-08
6.59304e-09
-9.74863e-08
-3.85655e-08
4.13088e-09
8.23229e-09
8.2994e-09
1.33778e-08
3.70296e-08
6.08646e-08
3.9216e-08
5.11194e-09
-1.20178e-09
-8.84198e-09
-1.49292e-08
-8.26462e-09
-6.71303e-09
-5.83912e-08
-1.44503e-07
3.80791e-08
-2.80773e-07
-3.1625e-07
-8.12616e-08
-1.07344e-09
2.2583e-09
-2.70406e-09
-8.76901e-09
-1.49054e-08
-9.57682e-08
-6.3423e-08
-1.93078e-09
-1.17597e-07
-6.27433e-08
6.4669e-08
1.15006e-07
4.96703e-08
-1.1258e-09
-1.61084e-08
-1.95988e-07
-3.03722e-07
-5.89932e-08
-3.07006e-08
-9.6304e-08
-3.00915e-08
3.39194e-09
6.93932e-09
3.87027e-09
2.49495e-10
1.50915e-08
4.92184e-08
5.93771e-08
2.97668e-08
3.56032e-09
-4.78627e-09
-9.0756e-09
-7.86489e-09
-8.56392e-09
-3.92347e-08
-6.56871e-08
1.136e-10
-2.0751e-07
-2.37884e-07
-6.98222e-08
-6.26747e-09
-1.78718e-10
1.90015e-10
-4.62664e-09
-3.94001e-08
-9.72477e-08
-9.45237e-08
1.24141e-08
-7.99106e-08
-4.74767e-08
1.07269e-07
1.56278e-07
6.8154e-08
-1.06898e-09
2.57296e-08
-1.06727e-07
-1.66785e-07
-2.5717e-08
5.42469e-09
-1.3364e-08
-9.7806e-09
7.90948e-09
9.86464e-09
8.05122e-10
-1.36684e-08
-1.29525e-08
9.55744e-09
3.52268e-08
5.35531e-08
2.57571e-08
2.18161e-09
-3.05984e-09
-6.91978e-09
-1.61691e-08
-2.99323e-08
-1.64353e-08
-5.87805e-09
-7.1807e-08
-6.03821e-08
-1.23788e-08
-4.95996e-10
-2.80728e-11
-2.5274e-10
-7.02697e-10
-3.19036e-08
-1.09224e-07
-1.06987e-07
5.83343e-09
-3.35485e-08
-1.83798e-08
1.04973e-07
1.35917e-07
6.63545e-08
-1.90352e-09
2.1645e-08
-7.02726e-08
-1.37118e-07
-3.55503e-08
6.30153e-09
-1.7766e-08
-1.68981e-08
1.30506e-08
1.56679e-08
-7.88737e-09
-2.0666e-08
-1.38111e-08
-2.13037e-09
1.44117e-09
4.01853e-08
5.54388e-08
1.49065e-08
5.5309e-10
-3.64508e-09
-1.54324e-08
-2.44464e-08
-8.36804e-09
-3.35232e-09
-1.50242e-08
-9.92179e-09
-7.67306e-10
7.95107e-10
-3.99509e-10
-4.6743e-10
-1.49578e-10
-2.59374e-08
-1.35389e-07
-1.27858e-07
-6.19396e-09
-5.52695e-09
3.09227e-09
7.91131e-08
9.42683e-08
4.53804e-08
7.09469e-10
9.82428e-09
-3.56845e-08
-1.18489e-07
-3.48798e-08
-9.28788e-09
-7.8732e-08
-8.10176e-08
-3.41643e-08
-1.93931e-08
-1.3717e-08
-3.89098e-10
1.27582e-08
1.02719e-08
-2.03574e-09
9.51957e-09
5.54693e-08
3.26195e-08
2.03749e-09
-1.19676e-09
-1.276e-08
-1.66054e-08
-5.20828e-09
-2.39924e-09
-1.43054e-08
-1.23308e-08
-2.22285e-09
1.78362e-09
3.4457e-10
-1.27478e-09
-4.69417e-10
-2.47296e-08
-1.57546e-07
-1.81064e-07
-2.40487e-08
-3.93749e-09
-2.3331e-09
5.80793e-08
6.2335e-08
2.32997e-08
9.04752e-10
8.1251e-09
-2.70813e-09
-4.38032e-08
-4.7614e-09
-4.83859e-08
-1.50163e-07
-1.18693e-07
-4.59578e-08
-7.06683e-09
1.8216e-08
1.98775e-08
1.83195e-08
3.75605e-08
1.42205e-08
-2.02182e-09
2.42083e-08
3.42252e-08
3.78043e-09
-1.31145e-09
-6.83885e-09
-3.13062e-09
-5.67567e-10
-1.89475e-09
-4.11184e-09
3.01394e-09
1.98594e-09
-1.58296e-10
2.29488e-09
5.2673e-10
-1.00803e-09
-2.82697e-08
-1.43188e-07
-1.79999e-07
-2.66757e-08
-1.31373e-08
-2.64996e-08
3.05716e-08
3.40722e-08
1.04124e-08
2.23948e-10
3.14645e-09
-3.49569e-09
-1.63512e-08
1.16532e-09
-2.40271e-08
-3.85633e-08
-8.39794e-09
-4.28508e-09
9.72965e-09
3.08563e-08
1.36046e-08
9.45143e-09
1.56302e-08
3.31398e-08
8.54679e-09
8.49518e-09
-1.40383e-09
-1.08004e-08
-5.763e-09
4.43372e-10
-2.87029e-09
-2.58299e-09
-2.94972e-10
8.96881e-09
9.90203e-09
-7.10327e-09
-1.22111e-08
1.09613e-09
6.37351e-09
1.64495e-09
-3.0363e-08
-8.66749e-08
-6.99124e-08
4.36838e-10
-3.00714e-08
-4.37784e-08
-5.31124e-09
7.04305e-09
2.32821e-09
1.15817e-10
-6.62918e-10
-6.45949e-09
-7.79279e-09
5.37623e-09
9.74989e-09
4.96779e-09
2.98255e-09
1.10777e-08
1.21676e-08
-9.23809e-09
-2.87926e-08
7.25082e-09
-4.14804e-08
-8.90684e-08
-1.8201e-08
1.41472e-08
-4.78691e-10
-2.7318e-08
-2.30412e-08
-9.43213e-09
-8.85546e-09
1.51067e-09
-2.0724e-10
2.71417e-09
-5.08107e-09
-3.61015e-08
-3.30627e-08
-2.43525e-09
1.41308e-08
4.62219e-09
-4.0293e-08
-5.50254e-08
-1.00357e-08
-3.64429e-09
-2.13307e-08
-1.26131e-08
-1.88234e-09
1.71692e-09
1.7826e-09
8.71986e-10
4.2508e-10
-8.15581e-10
-1.26764e-09
6.46475e-10
1.70577e-09
5.77073e-09
9.71565e-09
9.66195e-09
1.96557e-08
1.79674e-08
-1.0447e-08
8.03194e-10
-4.7142e-08
-2.27383e-07
-1.69233e-07
-2.05858e-08
-4.20599e-09
-4.14403e-08
-4.29965e-08
-2.5243e-08
-1.16283e-09
6.70416e-09
3.8618e-09
-1.82852e-10
1.87837e-09
-8.94464e-09
-1.72566e-08
-5.44358e-09
8.8635e-09
6.60583e-09
-4.55414e-08
-7.34848e-08
-1.95735e-08
-1.27359e-09
-1.27777e-08
-7.77892e-09
-1.81794e-09
5.41957e-11
1.19853e-09
-2.09761e-10
1.62356e-09
2.93925e-09
6.92079e-10
2.75241e-10
2.46629e-09
2.99478e-09
1.37181e-09
4.96208e-09
1.2494e-08
1.03808e-08
-6.98729e-09
-6.60622e-09
-2.24916e-08
-1.64636e-07
-1.67173e-07
-3.1712e-08
-7.25199e-09
-4.95173e-08
-5.08524e-08
-2.17415e-08
2.705e-09
2.89336e-09
-7.48066e-10
1.99605e-11
1.63123e-09
2.13481e-09
-2.88669e-09
-1.28017e-09
-4.45511e-09
-2.39904e-08
-4.07748e-08
-4.31296e-08
-8.18696e-09
-6.88271e-09
-1.90852e-08
-5.48752e-09
4.1676e-09
2.70338e-09
4.09821e-10
-3.96064e-11
2.08947e-09
4.7478e-09
1.2223e-09
5.71133e-10
2.61463e-09
-3.94093e-09
-5.41084e-09
9.41938e-09
2.1456e-08
1.73203e-08
3.48057e-09
-3.2706e-10
-3.62208e-09
-6.41891e-08
-9.52356e-08
-1.83515e-08
-6.686e-09
-4.67978e-08
-5.28415e-08
-2.2755e-08
-6.44776e-09
-1.2279e-10
-2.41517e-09
-9.16698e-11
-3.8067e-09
-1.03948e-08
-6.25094e-09
3.22784e-11
-6.83603e-09
-3.79407e-08
-4.32154e-08
-5.59324e-09
6.99557e-09
6.08766e-10
7.09058e-10
4.61199e-10
5.28381e-09
6.85045e-09
-2.36288e-11
-2.3286e-09
-9.27599e-10
-4.46512e-10
-2.15586e-09
-9.96426e-09
-1.8831e-08
-1.36211e-08
-7.43643e-10
6.90123e-09
9.43191e-09
7.2499e-09
1.55423e-09
2.15549e-10
9.15496e-10
-3.38439e-09
-1.29235e-08
-6.65083e-09
7.95553e-10
-1.03621e-08
-2.18917e-08
-1.97165e-08
-3.77586e-10
-2.0389e-10
-8.45139e-10
-5.03429e-09
-9.42179e-09
-6.07058e-09
-2.74215e-10
-5.34137e-09
-2.36683e-08
-5.04585e-08
-6.74521e-08
-4.41469e-08
-1.06436e-08
-6.28207e-10
-8.87829e-11
-3.3782e-10
-3.97917e-10
-6.00149e-09
-1.48873e-08
-1.68018e-08
-1.37124e-08
-1.25977e-08
-1.20762e-08
-8.55253e-09
-4.2402e-09
-2.87007e-09
-4.61351e-09
-8.22652e-09
-8.87517e-09
-4.83648e-09
-5.58123e-10
-1.34252e-09
-9.89596e-09
-1.21594e-08
-5.72442e-09
-2.51304e-09
5.80634e-10
2.05165e-09
1.64479e-10
-8.58388e-10
7.48877e-09
-5.98426e-10
-3.38683e-09
-1.97346e-10
1.16881e-09
6.88827e-10
1.61887e-09
-1.3143e-09
-6.92956e-09
-9.06664e-09
-8.16067e-09
-5.75349e-09
-3.46031e-09
-1.81292e-09
-1.12737e-09
-3.25131e-09
-5.50511e-09
-3.58773e-09
-2.84665e-10
-1.47283e-09
-6.93954e-09
-1.15598e-08
-9.51508e-09
-3.0706e-09
-7.33832e-10
-3.47058e-10
-1.02374e-09
-1.23013e-08
-2.21971e-08
-1.26013e-08
3.23043e-10
-6.55391e-10
-7.8829e-09
-1.22469e-08
-9.37229e-09
7.16604e-10
9.76021e-09
1.40766e-08
1.57373e-08
1.40512e-08
-2.87738e-11
-1.95631e-10
-5.34306e-11
-4.93529e-13
-1.68258e-11
-2.87192e-13
-9.59936e-12
-4.36573e-11
-3.81795e-11
-3.46314e-11
-7.54618e-11
-5.45216e-11
-4.17778e-11
-3.64903e-11
1.41612e-10
1.35396e-10
-1.68213e-11
-1.1315e-10
-9.65764e-11
-4.77712e-11
1.10303e-11
-1.56191e-11
-6.10169e-11
-2.60733e-10
-6.80106e-10
-7.39266e-10
-5.4594e-10
-3.68939e-10
-1.01535e-10
1.35887e-10
1.82284e-10
7.60993e-11
-6.1045e-11
-1.14853e-10
-2.42348e-11
1.04773e-10
3.34325e-11
-5.174e-11
-3.95656e-10
-3.28967e-10
-4.10509e-09
-3.97913e-09
-2.01082e-10
7.15337e-10
1.43353e-09
5.86285e-10
-3.93322e-10
-1.02808e-09
-9.51706e-10
9.7528e-11
4.89477e-10
9.70967e-10
1.44332e-09
1.8145e-09
-2.28448e-10
-7.80985e-09
-1.93044e-08
-3.11546e-08
-3.92738e-08
-2.29771e-08
-2.05795e-09
-4.89928e-09
-1.78326e-09
-2.94759e-09
-6.9982e-09
-9.45957e-09
-6.97927e-09
-1.74616e-09
3.19349e-09
4.08016e-09
2.44234e-10
-4.17078e-09
-4.67713e-09
-2.43105e-09
-6.96791e-10
-1.61371e-10
-5.99652e-10
-2.32115e-09
-1.63735e-09
-1.67719e-10
-1.38411e-08
-1.49296e-08
-1.98693e-09
1.84263e-09
4.08938e-09
1.48471e-09
-6.03506e-10
-1.22938e-09
-1.88529e-09
-1.28551e-09
6.09956e-10
3.40132e-09
5.84626e-09
5.91184e-09
-2.60759e-09
-2.28876e-08
-4.48612e-08
-6.49051e-08
-8.46822e-08
-6.0198e-08
-5.4455e-09
-2.14877e-08
-1.98161e-08
-4.66789e-09
-7.12517e-09
-1.4945e-08
-1.30474e-08
-3.19337e-09
5.04032e-09
3.14307e-09
-5.1308e-09
-1.0955e-08
-8.91952e-09
-3.17954e-09
-1.10373e-09
-8.293e-10
9.10367e-10
-6.29987e-10
-1.9397e-09
-1.42312e-09
-2.24718e-08
-2.21882e-08
-1.92069e-09
1.15392e-09
5.25689e-09
2.92415e-09
4.97696e-10
1.00924e-09
3.22701e-10
-1.0235e-09
-8.36709e-10
1.48202e-09
4.21104e-09
4.38187e-09
-6.11658e-09
-2.50435e-08
-3.68304e-08
-4.33541e-08
-5.44909e-08
-3.4494e-08
-6.48014e-10
-6.78268e-08
-8.01273e-08
-1.06607e-08
-4.70917e-11
-9.85717e-09
-8.38752e-09
-1.30704e-09
2.39456e-09
-3.43338e-09
-1.07831e-08
-7.99529e-09
-3.54678e-10
4.26964e-10
-1.07015e-08
-1.88366e-08
-4.18742e-09
1.19399e-08
3.904e-09
-4.69385e-09
-4.20259e-08
-2.67836e-08
-8.58871e-10
-2.56067e-11
6.36572e-09
5.30649e-09
1.90177e-09
3.18917e-09
3.07484e-09
2.3087e-10
-1.42101e-09
-8.96818e-11
9.07031e-11
-1.15768e-09
-1.22585e-08
-3.05069e-08
-3.37827e-08
-3.11676e-08
-4.03598e-08
-2.83289e-08
-2.67032e-09
-1.17417e-07
-1.88695e-07
-4.10636e-08
4.96283e-09
-1.38261e-08
-9.20691e-09
-7.11274e-10
1.3109e-09
-2.26622e-09
-7.6147e-09
-3.23047e-09
3.15584e-09
-1.67103e-09
-2.60512e-08
-5.19143e-08
-3.2382e-08
2.87387e-08
3.34558e-08
-7.82379e-09
-1.04464e-07
-4.22867e-08
-2.2201e-09
-1.00678e-10
7.63949e-09
7.37515e-09
2.85028e-09
6.03168e-09
8.0472e-09
2.18613e-09
-2.84271e-09
-2.05122e-09
-4.09828e-09
-1.05562e-08
-2.38559e-08
-4.07572e-08
-3.54594e-08
-2.95099e-08
-4.48883e-08
-3.86306e-08
-4.31219e-09
-9.65825e-08
-2.6154e-07
-1.07457e-07
8.6977e-09
-2.91669e-08
-2.68329e-08
-3.09392e-09
3.42348e-09
7.34738e-09
7.64242e-09
9.47587e-09
7.97819e-09
-7.08506e-10
-2.46498e-08
-6.11696e-08
-6.05272e-08
2.15907e-08
7.51411e-08
2.16554e-08
-1.91074e-07
-1.05589e-07
-5.19898e-09
-6.39323e-10
8.66656e-09
8.85768e-09
2.40209e-09
6.21224e-09
1.20231e-08
4.70105e-09
-5.04748e-09
-7.13093e-09
-1.04528e-08
-2.27879e-08
-4.1199e-08
-4.84768e-08
-3.51455e-08
-4.01839e-08
-7.15256e-08
-5.61526e-08
-3.65659e-09
-6.90431e-08
-2.73846e-07
-1.79211e-07
7.61203e-09
-3.43622e-08
-4.23644e-08
-7.77876e-09
5.88227e-09
1.6855e-08
2.51998e-08
2.38048e-08
9.69672e-09
-3.5578e-09
-1.74577e-08
-4.85495e-08
-6.97389e-08
-8.98331e-09
9.07306e-08
1.01876e-07
-1.65211e-07
-2.63631e-07
-1.10834e-08
-3.43357e-09
8.78733e-09
9.00836e-09
1.09526e-10
1.8246e-09
8.51129e-09
5.44674e-09
-9.67508e-09
-2.1575e-08
-2.4568e-08
-2.69233e-08
-3.83548e-08
-3.6642e-08
-2.89943e-08
-6.23195e-08
-1.25579e-07
-8.50003e-08
-4.27864e-10
-9.09849e-08
-3.23525e-07
-2.21116e-07
4.49031e-10
-2.34353e-08
-3.42497e-08
-6.40076e-09
9.07879e-09
2.3794e-08
3.45029e-08
2.53039e-08
-5.81443e-09
-2.14561e-08