/*--------------------------------*- C++ -*----------------------------------*\
| =========                 |                                                 |
| \\      /  F ield         | OpenFOAM: The Open Source CFD Toolbox           |
|  \\    /   O peration     | Version:  5.0                                   |
|   \\  /    A nd           | Web:      www.OpenFOAM.org                      |
|    \\/     M anipulation  |                                                 |
\*---------------------------------------------------------------------------*/
FoamFile
{
    version     2.0;
    format      ascii;
    class       volScalarField;
    location    "50.4676134421789371";
    object      produu;
}
// * * * * * * * * * * * * * * * * * * * * * * * * * * * * * * * * * * * * * //

dimensions      [0 2 -3 0 0 0 0];

internalField   nonuniform List<scalar> 
60000
(
1.92361e-10
5.84127e-09
9.76722e-09
4.3528e-09
-3.4767e-10
-7.46539e-11
3.12593e-10
8.41191e-11
-5.55447e-10
1.14393e-10
-1.57557e-09
-1.71548e-09
-6.62778e-10
-9.9148e-10
-2.5126e-09
-2.25696e-09
2.79065e-10
4.49896e-09
2.09406e-08
3.97996e-08
4.93269e-08
1.25213e-08
-4.14129e-08
-4.08691e-08
3.9918e-08
1.07092e-07
7.55615e-08
9.01277e-09
-1.16879e-08
-1.08255e-08
-1.09963e-08
-1.93722e-08
-2.77139e-08
-1.49842e-08
-1.01089e-09
-4.7874e-09
-3.84261e-11
-1.68013e-09
-6.18604e-10
-6.38988e-10
-2.1494e-08
7.85859e-09
2.50278e-08
-7.10003e-09
-2.07639e-08
-2.69541e-09
8.4376e-10
-5.50773e-09
-4.7783e-09
-1.92031e-08
-4.49609e-08
-4.35797e-08
-8.8747e-09
4.09143e-09
1.45414e-08
4.6922e-08
1.13103e-07
1.8011e-07
1.55498e-07
-4.07715e-09
-2.1345e-07
-3.55859e-07
-2.64932e-07
2.32334e-07
1.08769e-06
1.8025e-06
1.56867e-06
6.50688e-07
2.00002e-09
-6.64639e-08
2.27426e-08
1.0269e-07
7.43466e-08
5.81713e-09
-6.18475e-09
6.66726e-09
-8.85136e-09
1.90717e-08
5.22974e-08
7.22843e-09
1.52017e-09
-5.03656e-08
-9.71595e-09
-3.98622e-09
-2.84492e-08
-1.43526e-08
-2.77351e-10
-3.75882e-09
-2.30551e-09
-4.4979e-09
-1.67912e-08
-5.6362e-08
-3.15386e-08
2.29618e-09
2.78983e-08
1.26429e-07
2.85154e-07
3.44404e-07
1.81557e-07
-6.24792e-08
-3.00319e-07
-4.81354e-07
-2.60301e-07
4.03053e-07
1.18174e-06
1.65349e-06
1.2807e-06
4.37295e-07
-1.38355e-07
-1.72593e-07
-2.49519e-08
8.53237e-08
1.66633e-07
1.34747e-07
3.76407e-08
7.54291e-09
-1.74782e-09
3.65558e-09
1.37305e-07
1.39486e-07
7.43733e-08
-1.6403e-08
7.06584e-10
-2.23668e-09
-3.78233e-08
-3.36471e-08
-1.6766e-08
9.6359e-11
-5.41676e-10
7.74671e-09
2.47793e-08
-4.7125e-09
-1.25556e-08
4.83526e-09
-9.96199e-09
7.93445e-08
2.58192e-07
2.2423e-07
1.43013e-09
3.07115e-08
6.39136e-08
-1.89806e-07
-8.76909e-08
4.2744e-07
7.76115e-07
7.84853e-07
4.02497e-07
-2.27463e-08
-1.65635e-07
1.46124e-09
1.151e-07
5.29992e-09
-2.57892e-08
2.71388e-08
2.46553e-08
2.54576e-10
1.5338e-08
-7.21463e-08
-6.82199e-09
1.4775e-07
1.17873e-07
2.75079e-08
4.3825e-09
3.14311e-09
-4.13101e-08
-3.40392e-08
-9.06701e-09
-4.22664e-09
-3.9325e-09
2.14673e-09
1.92653e-08
2.41107e-08
-3.0788e-09
2.21339e-08
-2.54996e-08
4.13558e-08
2.99546e-07
2.12028e-07
-1.52798e-07
1.2922e-07
5.17292e-07
7.10981e-08
-5.2501e-08
5.14936e-07
6.88576e-07
4.60125e-07
1.56916e-07
-3.76452e-08
-9.07829e-08
5.89616e-08
2.59882e-07
1.65558e-07
-2.6336e-08
-7.7867e-08
-5.04166e-08
-2.67654e-08
2.64894e-08
-4.31913e-08
-1.54751e-07
2.91044e-08
7.92287e-08
9.46693e-08
1.398e-08
-1.03021e-08
-3.45859e-08
-3.44482e-08
1.0594e-08
6.73524e-09
-1.22062e-08
-1.71448e-08
2.93071e-09
1.46641e-08
6.44135e-09
6.54414e-09
-6.39153e-09
1.10303e-07
5.31584e-07
4.01366e-07
-1.03247e-07
2.65758e-07
1.1891e-06
4.47065e-07
-7.0369e-08
5.87042e-07
5.50925e-07
1.7981e-07
1.72573e-08
-3.6264e-08
-5.9873e-08
-6.76219e-08
1.03286e-08
1.02521e-07
7.05725e-08
1.63978e-08
-2.70064e-08
-5.98997e-08
-3.87467e-08
-4.44666e-08
-1.54239e-07
-8.16085e-08
-1.05616e-08
6.73146e-08
7.0275e-08
1.09173e-08
-1.14066e-08
-2.0234e-08
6.73835e-09
1.10917e-08
-8.35973e-10
-1.43095e-08
-9.31453e-09
-4.92944e-10
-1.67948e-09
-1.1246e-08
8.44714e-11
2.80783e-07
8.20262e-07
5.28486e-07
6.24506e-09
4.64662e-07
2.08809e-06
1.16066e-06
-5.84947e-08
3.65804e-07
1.54315e-07
-4.21342e-08
-7.29355e-08
-5.95805e-08
-3.70235e-08
-3.16239e-08
-5.3482e-08
-4.27307e-08
2.27167e-08
1.09423e-07
1.7935e-07
7.0703e-08
-5.14523e-08
-5.26693e-08
-8.00435e-08
-8.88185e-08
-2.06957e-08
-9.53998e-09
2.09859e-08
2.30701e-08
1.53515e-08
4.49791e-09
1.40428e-09
8.036e-09
6.68629e-09
9.1067e-08
1.38635e-07
9.34762e-08
1.16272e-08
-4.37189e-08
-8.22366e-09
5.32277e-07
9.5541e-07
4.90285e-07
3.22795e-08
3.98207e-07
2.51107e-06
2.18679e-06
1.04418e-07
7.45957e-08
-3.53681e-08
-9.85014e-08
-1.07516e-07
-7.37275e-08
-4.5312e-08
-3.32818e-08
-4.42322e-08
-7.08028e-08
-6.58749e-08
-1.3568e-09
1.79421e-07
2.83206e-07
8.59019e-08
-3.71652e-08
-3.88416e-08
-3.21905e-08
1.77718e-08
-1.37774e-09
-7.09302e-08
-5.0904e-08
1.273e-08
1.43282e-08
-9.19688e-09
-9.71433e-09
2.66619e-09
1.11052e-07
4.88909e-07
6.34425e-07
2.41341e-07
-7.78614e-08
3.00614e-10
6.40582e-07
7.74774e-07
3.10403e-07
1.74414e-08
1.19334e-07
1.66087e-06
2.75769e-06
5.49662e-07
-5.41463e-09
-1.08927e-08
-6.92895e-08
-7.82307e-08
-6.3815e-08
-5.59192e-08
-5.07291e-08
-6.02443e-08
-8.83876e-08
-9.47323e-08
-6.03428e-08
6.43169e-09
1.72814e-07
2.05964e-07
5.40765e-08
-1.17165e-08
-2.29832e-09
3.60818e-08
7.08506e-08
-7.49642e-08
-1.11835e-07
7.95807e-09
2.49623e-08
-1.62997e-08
-3.03858e-08
-1.26991e-08
1.66921e-08
4.24951e-07
1.3176e-06
7.86604e-07
-3.41619e-08
5.51057e-08
3.83547e-07
3.1325e-07
9.66491e-08
2.87066e-09
3.22203e-09
4.44439e-07
1.93179e-06
9.75949e-07
-2.97378e-08
-1.77346e-08
1.14623e-08
3.21669e-09
-3.84169e-08
-5.83887e-08
-5.90206e-08
-6.39212e-08
-8.76388e-08
-1.0048e-07
-6.15394e-08
-1.70141e-08
1.58367e-08
8.53336e-08
9.53593e-08
3.78241e-08
1.17904e-08
2.30308e-08
9.33472e-08
-5.24569e-08
-1.16741e-07
2.48371e-08
2.63055e-08
-9.31114e-10
-7.43629e-09
-5.69739e-09
-4.9016e-09
9.48783e-08
1.02854e-06
1.30335e-06
8.86518e-08
9.24001e-08
8.73236e-08
-4.02223e-08
-3.39556e-08
-5.02151e-09
1.05556e-09
1.56845e-08
6.03176e-07
8.67541e-07
-6.90358e-08
-1.73188e-07
7.5354e-08
7.08496e-08
-1.23835e-08
-4.65707e-08
-5.35759e-08
-5.87663e-08
-8.07504e-08
-9.45299e-08
-5.92824e-08
-1.09418e-08
-2.21626e-10
4.36412e-09
2.24718e-08
2.14754e-08
6.55684e-09
4.29277e-09
4.52317e-08
-3.43784e-08
-6.849e-08
3.02698e-09
-1.27279e-08
-2.91329e-09
-5.62166e-11
7.45715e-09
1.91039e-09
4.30114e-09
3.47444e-07
1.09532e-06
2.67804e-07
3.94439e-08
3.18266e-08
-1.35929e-07
-9.46643e-08
-1.20415e-08
4.70436e-10
-5.57877e-09
7.32345e-08
4.14533e-07
-7.26914e-08
-2.72111e-07
3.1091e-08
5.25022e-08
-1.8115e-10
-2.7828e-08
-4.18801e-08
-5.82189e-08
-9.20086e-08
-1.03533e-07
-5.95514e-08
-1.54919e-08
1.32929e-09
2.56024e-09
-1.41111e-10
-1.506e-09
-2.5029e-09
6.12792e-10
4.20283e-09
-3.82933e-09
-1.85456e-08
-3.87964e-08
-3.76796e-08
-4.22981e-09
-6.88075e-09
5.60315e-10
6.26971e-09
-2.0403e-09
9.07327e-08
5.80786e-07
3.8853e-07
-6.85931e-09
3.49288e-08
-1.07034e-07
-1.14965e-07
-2.72269e-08
3.49467e-09
-8.30817e-10
2.86633e-08
1.42805e-07
-4.87173e-08
-1.9072e-07
-7.01457e-08
-3.24401e-09
-3.27964e-10
-1.49114e-08
-2.6681e-08
-4.67321e-08
-1.03208e-07
-1.385e-07
-6.57721e-08
-1.63489e-08
-1.59247e-09
1.02126e-08
6.31478e-10
-3.50016e-09
-1.30995e-09
2.99845e-09
-4.58801e-09
-1.1205e-09
-2.06838e-09
-2.19769e-08
-8.25164e-09
2.07182e-08
6.04513e-09
-4.01844e-09
9.34828e-09
-5.0047e-09
2.61237e-08
2.8276e-07
4.21916e-07
4.06694e-08
6.98861e-09
-5.15078e-08
-8.42519e-08
-2.82497e-08
2.99644e-09
2.76143e-09
5.68236e-08
6.39192e-08
-1.49458e-09
-5.32482e-08
-2.55837e-08
-6.46827e-09
-5.9996e-10
-7.22198e-09
-2.17065e-09
-6.71975e-09
-6.21873e-08
-1.54313e-07
-9.3122e-08
1.38657e-08
-2.20294e-09
6.33401e-09
-1.51396e-09
-8.34403e-09
2.64999e-10
6.44284e-09
7.13476e-10
-1.00317e-10
-2.14712e-09
-7.14086e-10
9.33138e-09
1.60129e-08
9.45751e-09
-2.06092e-09
5.54254e-09
-1.48583e-10
8.4686e-09
1.1498e-07
3.51774e-07
1.30846e-07
-3.8877e-09
1.16075e-08
8.71614e-09
5.12981e-09
-1.67409e-08
-6.52899e-09
1.08103e-07
1.85556e-07
8.99059e-08
-6.31329e-09
-3.67928e-08
-4.36076e-09
1.70429e-09
6.74041e-09
2.00001e-08
2.04117e-08
1.88516e-09
-9.85363e-08
-1.39054e-07
4.7835e-08
5.25179e-08
-3.51038e-11
2.03878e-09
-9.21382e-09
-1.78663e-09
8.88431e-09
1.21706e-08
7.93717e-09
2.5455e-09
5.58467e-09
4.59027e-09
-5.51011e-10
-1.05935e-09
-5.19737e-10
-7.30383e-10
1.34203e-10
1.78326e-08
5.34475e-08
1.59973e-07
7.04072e-08
-1.01858e-08
7.91284e-08
7.03462e-08
1.83783e-08
-1.5614e-08
-2.24341e-08
1.4412e-08
1.43735e-07
9.94549e-08
-7.94441e-08
-7.14201e-08
-1.18543e-08
-3.71456e-09
-9.35762e-09
-2.24128e-08
-1.53501e-08
1.60542e-08
-2.18029e-08
-1.37662e-07
-6.46892e-09
1.48515e-07
3.48149e-08
-8.8949e-10
-4.61995e-09
-1.76169e-09
5.93558e-09
1.33871e-08
1.2273e-08
1.07053e-08
2.20681e-08
1.57528e-08
1.38555e-09
-8.66741e-12
-3.17048e-10
2.21259e-11
3.96569e-09
4.48618e-08
7.30624e-08
3.85297e-08
-1.27632e-08
7.63488e-09
5.75602e-08
3.80131e-08
1.27205e-08
-4.74408e-09
-9.67798e-09
-2.45725e-08
-3.22954e-08
-1.05996e-08
6.65848e-08
6.8508e-08
-4.44386e-08
-1.43207e-08
1.36097e-08
-4.90367e-08
-6.30471e-08
-1.47746e-08
9.74542e-09
-5.46427e-08
-3.93024e-08
1.69452e-07
1.4614e-07
1.96612e-08
1.46788e-10
1.07539e-10
4.18756e-09
5.84612e-09
1.27718e-08
5.9532e-08
1.09378e-07
3.85122e-08
-4.69932e-09
3.66578e-09
-3.23931e-09
-7.65088e-10
7.28635e-09
6.58472e-08
1.27213e-07
5.60647e-08
-4.26067e-09
9.11515e-09
1.17477e-08
2.92489e-09
7.76062e-09
-1.6579e-09
-2.6969e-09
-2.82691e-08
-7.45425e-08
-5.92834e-08
1.18846e-08
1.63686e-09
5.59117e-08
1.81967e-07
1.0269e-07
-3.90193e-08
-5.22026e-08
-4.0974e-08
-1.74851e-09
-8.05118e-10
1.94777e-09
1.35427e-07
2.38937e-07
1.12246e-07
4.19216e-09
-3.59336e-09
3.92492e-10
1.66186e-09
7.70849e-08
1.84896e-07
1.02182e-07
-6.78098e-09
1.85288e-08
1.07634e-08
-1.04207e-08
-1.80841e-09
8.24512e-09
6.95019e-08
1.27924e-07
6.43068e-08
1.99463e-09
4.71716e-09
-4.40161e-09
-8.02416e-10
1.81297e-08
5.06777e-09
1.20565e-09
-3.67411e-09
-5.27481e-09
6.07472e-10
3.54678e-09
4.98683e-08
6.63054e-08
2.73166e-08
-2.74332e-09
2.41571e-08
5.30774e-08
-5.74268e-09
7.20567e-08
1.78896e-07
3.00758e-08
3.72636e-08
1.90614e-07
1.98762e-07
6.98799e-08
4.24686e-09
3.60301e-08
-8.32353e-09
9.4425e-09
7.43218e-08
-8.32404e-09
-1.50506e-08
1.91049e-08
1.05137e-08
2.48648e-09
-4.62068e-10
-1.50989e-09
4.16531e-08
7.43942e-08
2.11816e-08
-1.51415e-09
4.19115e-09
-3.65594e-09
-4.58107e-10
1.01284e-08
5.59944e-09
-2.41827e-10
4.00569e-09
3.33966e-09
1.36895e-09
8.73303e-09
1.29676e-08
1.75791e-09
-4.06693e-10
-9.26042e-09
-2.33401e-08
-2.13042e-09
1.90081e-08
9.702e-09
2.20023e-07
2.26973e-07
7.66204e-09
3.56534e-08
1.07821e-07
8.77398e-08
5.05937e-08
5.38258e-09
9.16276e-10
-2.89133e-09
7.38851e-10
-2.32246e-09
-7.2049e-09
-1.4394e-08
-9.63558e-09
2.28762e-10
4.99697e-10
7.97902e-09
1.54876e-08
-3.81316e-10
-1.33646e-08
-1.95446e-09
8.70084e-09
6.90007e-09
-3.64425e-09
-1.20491e-08
-7.59367e-09
-1.21021e-09
1.74109e-10
1.92199e-09
5.22592e-09
5.82146e-09
-3.33338e-10
-2.49754e-09
2.28361e-09
2.54772e-09
-5.88513e-09
-7.5703e-09
1.75774e-08
1.72138e-08
1.04262e-08
9.7025e-08
4.10166e-08
-9.68459e-09
2.6048e-08
3.00765e-08
1.34098e-08
-1.11427e-08
4.46386e-09
2.71802e-09
-7.53298e-11
5.07964e-09
7.09453e-09
-6.54736e-10
-3.49748e-10
1.82297e-08
2.34803e-08
9.25635e-09
-4.52992e-09
8.20365e-09
8.58344e-09
-1.54289e-08
-9.99875e-09
9.75641e-10
1.55765e-09
-4.97129e-09
-7.25826e-09
-4.70221e-10
-4.3289e-09
-6.03054e-09
8.87587e-09
1.36861e-08
3.2185e-09
4.72462e-10
3.16919e-09
-6.5235e-09
-1.77384e-08
-9.94761e-09
7.75211e-09
9.96253e-09
-4.20983e-12
1.56599e-08
2.44791e-08
4.34526e-10
-5.21931e-09
-1.81507e-09
-1.22404e-08
-3.2362e-09
-8.71648e-11
6.81949e-09
-3.99892e-09
-1.33827e-08
-1.67704e-08
-1.35559e-08
1.13993e-08
3.49579e-08
2.49306e-08
2.50981e-09
-3.82996e-10
4.07809e-09
1.16743e-09
8.14418e-10
2.68023e-08
3.4294e-08
1.36929e-08
3.64679e-09
2.12222e-09
2.01708e-09
2.44239e-09
1.68922e-09
-9.17614e-10
3.4141e-09
1.48425e-08
1.9167e-08
1.11782e-08
-3.31855e-09
-1.09291e-08
-6.39991e-09
1.13208e-09
2.24942e-09
-1.84614e-10
-1.40146e-09
-2.50926e-09
-2.11343e-09
3.20672e-09
9.63459e-09
6.52289e-09
-1.38675e-09
-1.27821e-09
-3.5318e-11
-2.1136e-10
-1.15729e-08
-2.85925e-08
6.89986e-09
1.00897e-07
1.54887e-07
1.28878e-07
6.0621e-08
7.89396e-09
-1.4633e-09
3.09585e-10
-2.06882e-09
-2.03132e-10
2.54363e-09
-1.27251e-09
-2.22627e-09
3.30012e-09
1.0219e-08
1.76838e-08
2.43039e-08
2.54369e-08
2.01149e-08
1.4739e-08
1.4012e-08
1.50819e-08
1.12676e-08
3.97388e-09
3.39865e-10
2.71622e-10
3.386e-09
4.95338e-09
-2.0218e-09
-6.53917e-09
-6.00395e-09
-2.29059e-09
1.22664e-09
5.1747e-10
-8.57131e-09
-4.81951e-09
8.74613e-10
2.38592e-09
-9.64426e-10
1.79563e-08
7.28381e-08
1.06881e-07
7.62058e-08
3.73772e-08
2.21696e-08
1.71371e-08
1.6486e-08
2.20675e-08
2.65883e-08
2.03567e-08
9.60697e-09
2.1826e-09
-3.90424e-10
1.66847e-09
6.78645e-09
1.27947e-08
1.58738e-08
1.20078e-08
3.78023e-09
4.8954e-10
3.15204e-09
4.69028e-09
3.01827e-10
-5.25208e-09
-6.46608e-09
-6.77295e-09
-4.34787e-09
3.90124e-10
-2.94601e-09
-1.24876e-08
-1.87532e-08
-1.91135e-08
-1.57317e-08
-1.16583e-08
2.71464e-10
-9.87513e-10
-1.50634e-09
-2.84295e-09
-3.47548e-09
-2.13004e-09
3.47154e-09
6.6797e-09
8.94342e-09
9.84448e-09
7.69468e-09
4.76218e-09
2.86112e-09
-9.20961e-09
-2.65593e-08
-3.55639e-08
-3.46759e-08
-2.55337e-08
-2.67129e-09
2.03939e-08
3.23026e-08
3.58802e-08
7.68942e-09
-5.07113e-08
-5.86326e-08
-5.07824e-08
-3.84695e-08
-3.6708e-08
-3.28189e-08
-2.33707e-08
-6.3513e-09
1.96382e-09
2.75967e-09
-1.56184e-09
4.64203e-09
-1.54177e-08
1.04857e-09
4.47684e-10
4.7165e-11
4.44651e-10
-2.90462e-09
-3.52196e-09
-5.15955e-09
2.93042e-09
3.16512e-08
5.71652e-08
6.83975e-08
5.39176e-08
1.95796e-08
4.1511e-09
-1.2559e-09
2.77805e-08
8.14663e-08
1.30004e-07
2.02012e-07
3.44641e-07
5.02672e-07
6.08368e-07
6.33408e-07
4.6466e-07
1.76783e-07
3.38068e-08
5.25676e-10
-1.70715e-08
1.41489e-07
2.603e-07
1.25199e-07
-4.64484e-08
2.38872e-08
2.79891e-07
5.87359e-07
6.85227e-07
5.62691e-07
2.38345e-07
5.09554e-08
3.59621e-08
1.49527e-07
6.75526e-08
8.98036e-09
-1.53192e-09
-9.79977e-09
-1.23874e-08
-9.16276e-09
1.76895e-08
7.64576e-08
1.18485e-07
1.09657e-07
6.58945e-08
-1.06048e-08
-3.98346e-08
-6.1142e-08
-2.25211e-08
6.62154e-08
1.7959e-07
3.54261e-07
5.94959e-07
7.68385e-07
7.92725e-07
6.74416e-07
4.0208e-07
5.65613e-08
-2.99244e-08
-8.53101e-08
7.78621e-08
4.48711e-07
5.80449e-07
2.86638e-07
-3.69469e-08
-1.76173e-08
2.50855e-07
5.97453e-07
7.62786e-07
6.39506e-07
3.13864e-07
2.86321e-09
-2.79246e-08
3.63226e-07
4.46356e-07
6.8234e-08
-1.55408e-09
-5.97952e-09
-1.22679e-08
-6.04156e-09
1.47935e-08
6.41656e-08
9.153e-08
7.045e-08
2.82337e-08
-5.36307e-09
-4.56105e-09
-3.44462e-08
-3.08469e-08
3.217e-08
1.33446e-07
3.04562e-07
4.81469e-07
4.87545e-07
3.43707e-07
1.65369e-07
2.35377e-08
3.987e-08
3.70945e-07
1.73314e-07
5.57438e-08
4.56922e-07
4.51354e-07
1.27235e-07
-8.8787e-08
-6.84983e-08
5.9061e-09
1.18993e-07
2.45457e-07
2.22028e-07
7.35959e-08
-4.01435e-08
1.66655e-07
8.6407e-07
1.07573e-06
2.95419e-07
6.56058e-09
-1.19523e-10
-7.61417e-09
-3.9429e-09
9.81533e-09
5.94543e-08
8.01802e-08
4.25779e-08
4.22033e-09
5.18539e-09
4.19536e-08
1.60248e-08
-3.32104e-08
6.01605e-09
1.1556e-07
3.31863e-07
5.27895e-07
4.326e-07
2.12074e-07
5.47976e-08
-2.97746e-09
2.26667e-07
8.24516e-07
6.82445e-07
3.9263e-09
4.94148e-07
4.57353e-07
1.01255e-07
-5.59411e-08
-2.6743e-08
3.59903e-09
3.03488e-09
5.3158e-08
6.48126e-08
1.56806e-08
1.27866e-08
3.21179e-07
1.40038e-06
2.07925e-06
9.02235e-07
6.79386e-08
1.17082e-08
-1.5265e-09
-1.19187e-08
9.44494e-09
9.22423e-08
1.34648e-07
5.44932e-08
-1.79036e-08
2.08905e-08
5.25349e-08
3.82057e-08
-3.8361e-08
-3.2591e-08
1.18501e-07
4.40224e-07
6.63597e-07
4.42876e-07
1.86037e-07
6.60512e-08
-1.55316e-08
2.85939e-07
1.04694e-06
1.17943e-06
1.58988e-08
4.87558e-07
4.27181e-07
7.07718e-08
-3.3276e-08
-4.48191e-08
-3.28531e-08
-5.84013e-09
3.2255e-08
3.32515e-08
1.65445e-09
2.07583e-08
1.73491e-07
9.33388e-07
2.14382e-06
1.54009e-06
3.51889e-07
1.91689e-07
-1.1232e-09
-7.02429e-09
-7.63215e-09
8.70165e-08
1.83824e-07
1.22403e-07
-2.44429e-08
7.95297e-08
1.14942e-07
3.71609e-08
-3.59536e-08
-6.21476e-08
1.37859e-07
5.64712e-07
6.97592e-07
3.48636e-07
1.24649e-07
6.82482e-08
-1.00081e-08
2.14349e-07
1.17013e-06
1.52142e-06
8.60546e-08
2.84008e-07
1.90123e-07
-1.15697e-08
-2.59245e-08
-2.1128e-08
-5.12557e-08
-8.89422e-08
-8.12706e-08
-5.45623e-08
-3.89664e-08
2.61435e-08
1.33228e-07
4.24254e-07
1.27296e-06
1.46571e-06
7.61301e-07
7.2469e-07
1.07621e-07
8.23815e-10
-1.79768e-08
-1.33827e-08
8.69178e-08
1.56358e-07
3.21095e-08
8.27197e-08
3.58571e-07
1.05271e-07
-2.56937e-08
-3.41811e-08
2.05973e-07
6.43947e-07
5.84545e-07
2.37208e-07
7.8343e-08
4.97865e-08
5.00524e-09
1.22035e-07
1.13845e-06
1.71755e-06
1.81488e-07
5.7901e-08
2.05047e-08
-3.67024e-08
-3.51132e-08
-3.27101e-08
-7.53113e-08
-1.66371e-07
-2.28369e-07
-1.88331e-07
-1.10609e-07
-3.30242e-08
1.15971e-07
2.39394e-07
5.21208e-07
8.09611e-07
8.29257e-07
1.26235e-06
8.22297e-07
8.40137e-09
-5.5297e-09
-1.07311e-07
-9.78135e-08
1.92202e-08
7.72067e-08
-2.13005e-09
4.4668e-07
4.88673e-07
8.90951e-10
6.09238e-08
2.5509e-07
4.67189e-07
3.22049e-07
1.0621e-07
4.27903e-08
3.00075e-08
3.64062e-09
7.37414e-08
9.18723e-07
1.71456e-06
3.06356e-07
-2.92173e-08
-2.0357e-09
-2.44892e-08
-3.85584e-08
-4.9457e-08
-9.36311e-08
-1.85511e-07
-2.74716e-07
-2.52951e-07
-1.22439e-07
-4.68286e-08
2.67885e-08
1.59748e-07
2.19923e-07
2.80224e-07
4.76681e-07
1.30209e-06
2.19027e-06
3.76401e-07
5.42083e-09
-1.62774e-08
-6.22916e-08
-1.1941e-07
-6.7473e-08
4.59423e-09
1.03376e-07
6.88547e-07
2.25494e-07
5.51237e-08
2.69612e-07
1.93795e-07
5.40031e-08
1.86946e-08
3.06392e-08
2.43649e-08
-1.08714e-10
6.56228e-08
5.87894e-07
1.40286e-06
4.27863e-07
-2.93627e-09
1.96947e-08
-1.26527e-08
-3.05966e-08
-4.80996e-08
-8.33644e-08
-1.51423e-07
-2.40755e-07
-2.58066e-07
-1.36254e-07
-2.01513e-08
-4.13384e-09
5.1854e-08
9.59501e-08
7.70354e-08
1.81103e-07
8.74498e-07
3.01799e-06
9.1328e-07
-2.52107e-08
3.59867e-07
1.76492e-07
-6.88619e-08
-1.14671e-07
-2.28501e-08
-1.17136e-08
2.19942e-07
4.46105e-07
1.7749e-09
2.48591e-07
1.74458e-07
6.41713e-09
-1.35709e-08
1.1636e-08
1.22961e-08
5.78362e-09
7.72171e-08
3.1408e-07
8.89305e-07
5.10325e-07
5.55626e-08
-4.83281e-09
6.05359e-09
-7.11548e-09
-3.36038e-08
-5.41952e-08
-8.31833e-08
-1.55676e-07
-2.22314e-07
-1.46328e-07
-2.32806e-08
2.75908e-12
1.19738e-08
3.11389e-08
1.16085e-08
4.01432e-08
3.47035e-07
2.30919e-06
8.37821e-07
-1.74968e-07
7.22623e-07
3.97325e-07
1.86082e-08
-4.96888e-08
-8.25038e-09
-1.12619e-08
-4.31837e-08
2.42799e-07
9.74128e-08
9.17448e-08
2.88409e-07
1.05245e-07
-1.55351e-08
-3.47473e-08
-1.65473e-08
7.90341e-09
7.12523e-08
2.07907e-07
5.46658e-07
4.87345e-07
-2.63686e-08
-3.49096e-08
4.81757e-08
1.42189e-08
-1.83075e-08
-2.18222e-08
-1.44269e-08
-5.43407e-08
-1.40189e-07
-1.23333e-07
-2.38261e-08
-1.64576e-09
1.12265e-08
2.95932e-08
3.75187e-09
1.73937e-09
8.58322e-08
8.36987e-07
2.35628e-07
-2.7481e-07
6.29801e-07
3.85954e-07
5.77339e-08
-6.37045e-09
8.2463e-09
3.87046e-09
-4.27011e-08
6.71369e-08
1.67863e-07
-1.39174e-08
2.55572e-07
1.59869e-07
-4.36507e-08
-9.7341e-08
-5.05838e-08
9.37348e-10
2.53278e-08
1.84697e-07
3.71829e-07
2.36223e-07
-8.01819e-08
-2.4486e-08
1.52958e-08
7.51367e-09
-1.08124e-08
1.78716e-09
2.55755e-08
6.95959e-09
-5.67508e-08
-7.3589e-08
7.23611e-09
8.48961e-09
1.90319e-09
2.58222e-08
1.52017e-08
2.73498e-09
3.94749e-08
1.32735e-07
-1.12243e-08
-6.36216e-08
1.39188e-07
7.47716e-08
9.75017e-09
2.12465e-11
1.70912e-09
1.62965e-08
3.146e-08
5.40159e-08
1.66182e-07
-1.86382e-09
1.02744e-07
1.06348e-07
-7.81905e-08
-1.37149e-07
-8.21046e-08
-4.35607e-10
-8.44164e-09
1.41305e-07
2.04525e-07
8.70375e-08
-1.0257e-08
-1.57946e-08
-1.5437e-09
6.80745e-09
-1.88946e-08
1.20836e-08
3.98758e-08
8.37641e-09
-6.39919e-09
-3.8439e-08
5.04697e-08
6.55105e-08
5.1678e-09
5.27917e-09
1.79308e-08
2.27254e-08
3.89288e-08
2.00394e-08
-4.188e-09
-2.51423e-08
-4.47802e-08
-1.90289e-08
-1.43426e-09
2.9226e-12
3.69183e-11
5.91099e-09
8.79928e-08
1.38482e-07
1.52868e-07
4.39421e-08
1.17439e-08
3.97992e-08
-8.17785e-08
-1.39566e-07
-8.47381e-08
5.64009e-10
-8.18904e-09
1.57331e-07
2.62565e-07
1.3773e-07
4.07385e-08
-1.60938e-08
5.19671e-08
4.47361e-08
-4.31485e-09
3.2258e-08
4.51367e-08
-2.00748e-08
-1.09455e-08
-6.34281e-09
3.88219e-08
1.46596e-07
5.14628e-08
7.45383e-10
6.61639e-09
2.874e-08
4.47049e-08
1.71251e-08
-3.74131e-09
-1.44807e-08
-1.54266e-08
-5.15646e-09
-7.89787e-11
-1.87841e-10
-2.27765e-10
2.31143e-09
1.10512e-07
3.17975e-07
2.25581e-07
5.40588e-08
-4.01832e-09
1.3738e-08
-5.42654e-08
-8.54002e-08
-4.35008e-08
1.5345e-10
-3.24636e-09
9.22206e-08
3.15323e-07
1.74811e-07
-2.81029e-08
1.29223e-07
2.95267e-07
1.81812e-07
6.01989e-08
1.21039e-08
-1.48739e-08
-2.75282e-08
-3.49785e-08
3.35508e-09
4.93019e-09
1.70207e-07
1.50441e-07
2.20112e-08
1.11157e-09
2.47204e-08
3.17086e-08
1.81171e-08
-5.95688e-09
-1.57669e-08
-1.49854e-08
-8.23756e-09
-3.47244e-09
-1.12145e-11
2.24397e-11
1.65935e-09
1.09309e-07
4.93845e-07
4.36562e-07
7.69557e-08
-4.36371e-10
3.30938e-08
-1.16611e-08
-3.23084e-08
-1.19045e-08
2.2341e-10
-4.26268e-09
9.82604e-09
6.54243e-08
9.83187e-09
1.19528e-07
4.53944e-07
3.77558e-07
7.41419e-08
-2.31641e-08
-5.98875e-09
-5.60566e-08
-4.44299e-08
1.36579e-08
-4.84985e-11
-1.01452e-09
1.08689e-07
2.49979e-07
1.0965e-07
4.2258e-09
7.47695e-09
1.7586e-09
1.85426e-09
-5.99949e-09
-8.41658e-09
1.69277e-09
-1.62845e-09
-1.06859e-08
-7.77847e-10
2.59278e-09
8.07756e-10
8.04476e-08
4.81247e-07
5.83443e-07
1.0283e-07
1.70549e-08
9.66333e-08
1.36376e-08
-3.47356e-08
-1.37272e-08
5.79468e-10
-1.40717e-09
2.46166e-09
-2.00614e-08
-3.26202e-08
1.05733e-07
1.69812e-07
3.54611e-08
1.42298e-08
1.04423e-07
6.58219e-08
-2.39709e-08
-2.47178e-08
-1.60973e-08
-1.14908e-08
-2.61965e-09
2.47701e-08
1.91515e-07
2.13351e-07
6.62603e-08
1.74763e-09
1.5451e-08
7.70508e-09
-3.54435e-09
9.60741e-09
1.43115e-08
-1.07388e-08
-1.27926e-09
1.26312e-08
5.83929e-09
-2.45417e-10
4.86722e-08
2.45194e-07
2.73432e-07
8.44401e-09
3.10415e-08
8.94164e-08
1.898e-08
-1.08924e-08
-4.15425e-09
-9.42846e-11
-5.22677e-10
-1.05797e-08
-3.58515e-08
-3.91034e-08
-1.31679e-08
-1.17841e-09
3.62812e-08
5.21755e-08
1.78735e-08
1.59718e-09
7.34486e-09
-4.94687e-09
1.66296e-07
1.14993e-07
6.11619e-09
-7.75028e-09
3.67837e-08
1.18926e-07
8.7673e-08
3.01978e-08
3.94155e-08
2.94923e-08
3.77152e-09
1.47274e-09
-3.09225e-09
-7.57655e-09
1.52233e-10
1.58478e-09
-3.45884e-09
-4.56162e-09
3.4221e-08
1.07544e-07
6.86241e-08
-1.71357e-08
-1.05465e-08
4.36012e-09
2.04018e-09
-8.22859e-10
5.71694e-10
1.77158e-09
2.03084e-10
-3.54982e-09
-6.28936e-09
-2.99817e-09
3.2179e-10
1.86646e-08
2.8641e-08
2.47357e-09
-1.4362e-08
-1.21294e-08
1.10958e-08
8.57225e-10
2.46218e-07
6.3092e-07
3.11209e-07
2.85509e-08
1.03535e-08
6.71528e-08
6.94704e-08
4.34739e-08
2.12226e-08
1.25307e-08
7.19326e-09
-1.00699e-09
-1.61066e-09
2.09075e-09
-1.61131e-09
-7.14927e-09
-9.57078e-09
-6.63139e-09
2.87213e-08
8.15169e-08
6.51675e-08
1.06973e-08
-1.0419e-08
-4.55786e-09
8.05288e-10
-3.82855e-09
-5.40633e-09
1.96483e-09
3.01808e-09
-7.58649e-10
-3.17388e-10
2.73205e-09
6.77601e-09
5.93372e-09
5.82873e-10
-1.96977e-10
-2.85003e-09
-5.63787e-09
6.71836e-09
8.16478e-09
3.1514e-08
3.62536e-07
4.66109e-07
1.04108e-07
8.34254e-09
9.89598e-08
1.05823e-07
5.31039e-08
-1.04363e-08
-4.32089e-09
2.20947e-10
-1.13128e-09
-2.48311e-09
1.65796e-09
5.9993e-09
1.8726e-11
6.46459e-09
1.63377e-08
1.86033e-08
1.9551e-08
7.46759e-09
-6.8643e-09
-2.38535e-08
-1.20731e-08
6.71838e-10
-5.65809e-10
7.97865e-12
3.14517e-10
-1.80933e-09
-5.63133e-09
-2.29095e-09
2.8241e-09
7.87805e-10
2.07521e-09
1.24412e-08
7.48021e-09
-1.18273e-08
-1.34187e-08
-1.65251e-09
1.1188e-09
2.02818e-09
5.18473e-08
1.26938e-07
6.36874e-08
-2.23957e-09
2.96952e-08
4.92738e-08
1.74417e-08
-6.78299e-09
-7.17796e-11
1.3787e-08
2.33041e-09
1.54667e-10
1.07129e-08
5.62747e-09
1.3902e-10
2.31095e-08
5.59686e-08
2.91504e-08
-3.15124e-11
1.55352e-09
-1.87273e-09
-5.56836e-09
1.45788e-08
4.23885e-09
-1.62983e-08
-1.0154e-08
-4.71441e-09
-2.08108e-09
-6.88996e-10
3.13416e-09
1.85869e-08
3.73172e-08
3.39895e-08
1.3878e-08
1.03745e-09
-3.13545e-09
-2.90893e-09
-5.04986e-10
-1.17812e-10
-3.47907e-10
1.21214e-09
1.59745e-09
-5.31062e-09
2.03121e-09
2.87444e-08
4.05798e-08
1.90214e-08
2.05299e-09
2.15056e-10
-6.05071e-10
-4.01031e-09
-1.04891e-08
-1.36417e-08
-1.43009e-09
2.62247e-08
6.6784e-08
1.21604e-07
1.43012e-07
7.70894e-08
1.43517e-08
2.91338e-10
2.03517e-12
-8.65424e-11
7.29541e-10
8.78951e-09
2.30093e-08
2.84351e-08
2.41702e-08
2.03859e-08
1.59094e-08
6.34702e-09
-2.11239e-09
-3.02134e-09
-6.9579e-10
5.90629e-09
1.21215e-08
7.67666e-09
-6.00087e-10
2.79818e-09
1.10045e-08
5.25666e-09
-2.62482e-09
-9.23731e-09
-1.2359e-08
-5.04669e-09
4.48431e-09
5.95817e-09
-2.5591e-08
-1.48383e-08
-3.7077e-09
-5.68667e-11
3.4531e-09
1.70904e-08
2.83272e-08
2.82206e-08
2.07838e-08
1.49186e-08
1.3402e-08
1.20315e-08
9.6577e-09
9.89213e-09
1.2736e-08
1.69056e-08
1.6284e-08
8.21071e-09
7.78546e-10
5.75167e-10
3.22512e-09
5.15633e-09
5.82878e-09
1.70673e-09
-1.76938e-09
-4.11101e-10
1.3337e-10
2.89359e-09
3.31691e-09
-6.62338e-09
-1.22296e-08
-2.84045e-09
1.08726e-08
1.0788e-08
-3.72811e-09
-1.71904e-08
-2.43772e-08
-2.83509e-08
-3.11208e-08
-3.09866e-08
-1.47384e-09
-2.61659e-09
-1.0076e-09
2.11586e-09
5.70126e-09
3.52062e-09
8.49458e-10
-3.67592e-09
-2.57617e-09
4.60769e-09
1.03082e-08
6.40286e-09
-1.15923e-08
-3.25846e-08
-2.29117e-08
-2.0053e-08
-1.90744e-08
-1.21255e-08
1.14239e-08
1.57333e-08
1.69342e-09
-1.25667e-10
-3.7885e-10
-1.45435e-08
-2.0309e-08
-1.5142e-08
-1.28195e-08
-1.68346e-08
-1.81427e-08
-6.24992e-09
2.32201e-08
3.65227e-08
2.6723e-08
1.02509e-08
-3.86684e-10
-2.35904e-09
2.03454e-09
-2.62727e-09
2.97686e-09
7.62744e-09
-2.98524e-08
-1.90525e-08
-1.14626e-09
2.5254e-08
1.2824e-08
-1.64987e-08
-2.54241e-08
-4.71203e-08
-4.78306e-08
-6.49245e-09
3.84971e-08
4.25624e-08
-2.08657e-09
-4.1474e-08
9.67146e-08
3.06797e-07
5.25542e-07
7.86135e-07
1.06468e-06
7.83112e-07
2.41138e-08
-5.84701e-08
-1.5363e-08
-5.18636e-08
-8.45848e-08
-9.22723e-08
-7.72287e-08
-4.10504e-08
8.3312e-08
2.93335e-07
4.77374e-07
5.01042e-07
3.67742e-07
1.77647e-07
6.01264e-08
-1.98943e-09
-4.45507e-08
-7.3466e-08
-8.01538e-09
-1.37466e-09
-3.94017e-08
-3.14957e-08
-8.94255e-09
8.31881e-09
-3.27602e-08
-7.40467e-08
-6.69403e-08
-6.71418e-08
-7.21019e-08
-4.29599e-08
-8.19626e-09
1.28638e-08
1.58167e-08
4.94358e-08
2.11409e-07
4.24711e-07
5.82308e-07
7.47617e-07
9.93948e-07
8.57919e-07
6.60225e-08
-1.25713e-07
9.11932e-08
-2.28885e-08
2.82035e-08
5.66546e-08
-5.34366e-09
-2.70775e-08
8.68268e-08
3.14758e-07
5.00031e-07
4.8818e-07
3.12549e-07
9.83978e-08
-1.62904e-08
7.35057e-09
4.88711e-08
-6.39779e-08
-6.44019e-08
-1.57592e-09
-6.88617e-09
-1.45183e-08
-2.46426e-09
6.6049e-09
-2.55293e-08
-5.64706e-08
-4.15434e-08
-2.14107e-08
-2.06888e-08
-1.13061e-08
-2.92863e-09
2.02376e-08
4.88224e-08
8.84521e-08
1.74645e-07
2.37603e-07
2.24153e-07
2.18522e-07
2.79908e-07
2.31625e-07
-4.7608e-08
1.90031e-07
7.38942e-07
1.85506e-07
4.81639e-08
1.8501e-07
7.22191e-08
-7.69984e-09
6.84994e-09
8.52433e-08
1.88603e-07
1.72744e-07
4.54335e-08
-4.91745e-08
2.42619e-08
2.77678e-07
4.62395e-07
2.15336e-07
-6.23585e-08
3.55842e-08
7.58309e-08
8.35245e-10
-5.80608e-11
4.565e-09
-1.67432e-08
-4.4546e-08
-3.18901e-08
-2.66013e-10
1.16515e-08
1.07033e-08
1.20284e-09
1.54976e-08
6.23654e-08
1.26863e-07
1.82022e-07
1.7007e-07
8.39358e-08
4.54358e-08
9.43987e-08
9.1038e-08
-4.69377e-08
3.21828e-07
1.39273e-06
7.04099e-07
-1.76864e-08
2.54787e-07
1.2698e-07
1.99769e-09
7.0451e-11
6.65386e-09
5.28485e-08
5.97257e-08
-4.00745e-09
-3.09082e-08
1.3569e-07
6.01531e-07
1.10252e-06
8.94503e-07
2.55199e-07
2.35329e-07
4.28969e-07
2.6854e-08
-2.71249e-10
3.95749e-09
-1.51382e-08
-4.56394e-08
-4.11425e-08
-6.93393e-09
3.51682e-08
4.67812e-08
1.74887e-08
2.18365e-08
8.48781e-08
1.78066e-07
2.15717e-07
1.36948e-07
7.32636e-09
-3.40499e-08
4.75582e-08
9.41182e-08
-4.48463e-08
1.14157e-07
1.21202e-06
1.19722e-06
-1.74557e-08
2.85492e-07
2.14024e-07
1.51618e-08
-6.48478e-09
-7.30827e-09
-3.13568e-09
-9.36169e-09
-4.24112e-08
-5.58339e-08
4.4033e-08
4.02027e-07
1.00857e-06
1.20369e-06
7.27786e-07
8.49935e-07
1.69887e-06
1.83527e-07
-6.68602e-10
4.02372e-09
-1.29408e-08
-3.92779e-08
-4.2714e-08
-2.58105e-08
2.19755e-08
7.95548e-08
7.23385e-08
5.21937e-08
1.05399e-07
1.94229e-07
1.95797e-07
5.29903e-08
-6.10995e-08
-8.05125e-08
3.67575e-08
1.30698e-07
-4.67356e-09
5.71356e-08
7.87532e-07
1.21164e-06
5.16442e-08
1.7868e-07
1.8448e-07
2.39756e-08
-1.87611e-08
-3.83102e-08
-7.24833e-08
-1.11093e-07
-1.18556e-07
-9.13513e-08
-3.55839e-08
1.54525e-07
5.84937e-07
1.00713e-06
9.99792e-07
1.74197e-06
4.11518e-06
9.47101e-07
7.2827e-09
1.08909e-09
-1.71174e-08
-3.48349e-08
-3.67038e-08
-3.36408e-08
-1.8057e-08
2.67416e-08
8.42527e-08
9.02233e-08
1.01868e-07
1.60284e-07
1.26146e-07
-3.02839e-08
-1.02743e-07
-1.10975e-07
6.89825e-08
1.50076e-07
1.17365e-08
9.94078e-08
6.91451e-07
9.45904e-07
6.95633e-08
6.19844e-08
7.2515e-08
2.60141e-09
-2.87471e-08
-7.70319e-08
-1.58287e-07
-2.30056e-07
-2.02687e-07
-9.07817e-08
-4.56306e-08
1.08278e-08
2.22868e-07
5.42202e-07
8.61353e-07
2.33128e-06
6.17752e-06
3.01487e-06
9.49205e-08
-7.10394e-10
-3.19242e-08
-3.75389e-08
-1.88036e-08
-1.24217e-08
-8.96791e-09
-9.37652e-09
2.62442e-09
4.25665e-08
3.14919e-08
6.03243e-08
6.19892e-08
-2.47133e-08
-7.53959e-08
-1.09394e-07
1.00767e-07
1.14624e-07
-4.97316e-10
2.09847e-07
8.96033e-07
8.54179e-07
6.16168e-08
9.17561e-09
1.02422e-08
-1.48589e-08
-3.69449e-08
-9.09759e-08
-1.91838e-07
-2.93597e-07
-2.85194e-07
-1.07667e-07
2.77481e-08
-3.39079e-09
4.86719e-08
2.02961e-07
4.85034e-07
2.1164e-06
6.21794e-06
5.84137e-06
5.17778e-07
1.85741e-10
-2.78825e-08
-4.83355e-09
3.28213e-08
2.67429e-08
2.57271e-08
1.15825e-08