/*--------------------------------*- C++ -*----------------------------------*\
| =========                 |                                                 |
| \\      /  F ield         | OpenFOAM: The Open Source CFD Toolbox           |
|  \\    /   O peration     | Version:  5.0                                   |
|   \\  /    A nd           | Web:      www.OpenFOAM.org                      |
|    \\/     M anipulation  |                                                 |
\*---------------------------------------------------------------------------*/
FoamFile
{
    version     2.0;
    format      ascii;
    class       volScalarField;
    location    "50.4676134421789371";
    object      prodvw;
}
// * * * * * * * * * * * * * * * * * * * * * * * * * * * * * * * * * * * * * //

dimensions      [0 2 -3 0 0 0 0];

internalField   nonuniform List<scalar> 
60000
(
-7.38205e-11
-1.24468e-10
-9.06807e-11
-1.39734e-11
-5.60455e-12
-1.00957e-11
6.8364e-12
1.33638e-11
1.348e-12
1.15461e-11
1.44902e-12
-2.43347e-11
-1.51662e-11
-8.81685e-12
-1.11927e-11
-2.23915e-12
1.39192e-11
9.01139e-11
2.71381e-10
3.71933e-10
3.97939e-10
1.44967e-10
-8.68094e-11
-6.41142e-12
1.70375e-10
9.6284e-12
-4.56889e-11
-7.92664e-11
-1.13154e-10
-3.50391e-11
1.83312e-11
9.08664e-11
2.01307e-10
2.81174e-10
3.17399e-10
1.9255e-10
2.49716e-11
4.96953e-12
-2.3338e-12
-2.59002e-11
-1.93113e-09
-1.27382e-09
-2.24042e-10
9.31198e-12
-1.07292e-10
4.25375e-11
2.778e-10
3.22044e-11
2.82598e-10
2.67762e-10
-1.02217e-09
-1.19271e-09
-1.31424e-10
-6.82409e-11
4.6789e-11
7.15341e-10
1.82126e-09
3.01708e-09
4.23515e-09
4.04614e-09
6.56966e-10
-1.32544e-09
2.17162e-09
7.26625e-09
3.64974e-09
-6.84278e-09
-7.12143e-09
-2.32821e-09
-1.22796e-09
-2.16701e-10
3.75596e-10
1.24438e-09
3.28941e-09
4.82173e-09
4.68064e-09
1.61113e-09
3.78993e-11
2.06403e-10
-9.7836e-10
-1.84884e-09
-5.3843e-09
-2.92534e-09
-3.19252e-10
-2.15888e-10
-6.87325e-10
2.59626e-10
1.20604e-09
2.87665e-10
4.7006e-10
-5.34496e-11
-4.41006e-09
-4.94504e-09
-1.33956e-09
-1.79596e-11
-3.86379e-10
-2.54438e-10
9.69808e-10
4.39416e-09
9.34654e-09
8.23413e-09
3.66922e-09
3.53837e-09
1.24794e-08
1.78603e-08
2.02948e-09
-2.19219e-08
-1.80023e-08
-3.02262e-09
8.18971e-10
2.62484e-10
5.77384e-10
5.91943e-10
2.74843e-09
5.78833e-09
6.88192e-09
3.49935e-09
-1.04784e-10
8.81273e-10
-4.25819e-10
-4.99307e-09
-7.85306e-09
-3.29938e-09
-3.76959e-10
-3.39488e-10
-9.04446e-10
3.11212e-10
2.62713e-09
1.31401e-09
1.16424e-10
-1.08914e-09
-9.7867e-09
-9.22878e-09
-2.73612e-09
-6.53852e-11
4.4443e-10
1.04473e-09
2.13619e-09
8.05034e-09
1.52429e-08
5.16782e-09
3.03957e-09
2.34684e-08
2.58893e-08
1.18587e-08
-9.95478e-09
-2.71433e-08
-1.48761e-08
-1.24354e-09
-8.01644e-10
-2.06863e-09
-8.62538e-10
9.51856e-10
2.69271e-09
4.89488e-09
5.37666e-09
2.94247e-09
3.18239e-10
-4.46639e-11
8.82237e-10
-5.61853e-09
-1.21453e-08
-4.86928e-09
-6.89331e-10
-8.56867e-11
-4.71728e-10
7.94088e-10
4.31027e-09
4.56677e-09
2.07303e-10
-1.73913e-09
-2.21954e-08
-2.61159e-08
-6.5815e-09
-3.41729e-10
1.88532e-09
7.01433e-09
1.09225e-08
1.79389e-08
2.30957e-08
1.06859e-09
-1.03308e-08
4.408e-08
3.63545e-08
-8.04007e-10
-1.22791e-08
-1.80284e-08
-9.77832e-09
-3.70118e-09
-4.83339e-09
-6.32705e-09
-3.69984e-09
1.00199e-12
2.56258e-09
4.39599e-09
4.4502e-09
5.11868e-10
-5.87078e-10
-5.26517e-10
2.67954e-10
-3.35264e-09
-8.87376e-09
-1.20834e-08
-5.56424e-09
-5.79528e-10
1.41017e-10
6.72927e-10
3.98588e-09
8.69492e-09
2.81098e-09
-6.6698e-10
-2.73264e-08
-6.05768e-08
-2.551e-08
3.23708e-10
1.35413e-09
1.6052e-08
2.63883e-08
2.47277e-08
1.84519e-08
-1.13465e-09
-3.33701e-08
5.04803e-08
3.46066e-08
-1.6107e-08
1.7493e-08
2.99572e-08
7.66132e-09
-3.64539e-09
8.77915e-10
2.51849e-09
-2.25503e-10
-6.8346e-10
6.05895e-10
1.67768e-09
2.07957e-09
-1.14819e-09
-3.72808e-09
-2.52267e-09
-2.51121e-09
9.47029e-10
-3.98561e-10
-1.15366e-08
-1.3e-08
-5.04256e-09
6.30902e-10
5.45868e-10
1.96094e-09
8.18923e-09
6.93307e-09
2.80192e-10
-1.5755e-08
-7.57158e-08
-4.73303e-08
9.0444e-09
-6.82783e-10
3.09303e-08
6.21549e-08
3.6756e-08
7.14048e-09
-3.27024e-09
-4.08363e-08
4.19794e-08
1.82945e-08
-5.55366e-08
7.19854e-08
1.16354e-07
3.6846e-08
-1.13593e-09
3.22236e-09
1.08083e-08
9.21121e-09
3.0673e-09
-1.16779e-10
-8.21663e-10
-1.18224e-09
-2.60181e-09
-5.1621e-09
-6.05093e-09
-7.70192e-09
-4.14321e-09
-2.74439e-09
-2.99849e-09
-1.30205e-08
-9.23282e-09
-2.73526e-10
5.40092e-10
3.13876e-10
3.94412e-09
7.1449e-09
8.73198e-10
-4.89541e-09
-4.69963e-08
-2.56457e-08
3.94593e-08
-3.35411e-09
3.82958e-08
9.72368e-08
5.25893e-08
2.23245e-09
8.58974e-09
-1.15743e-08
3.87807e-08
1.24558e-08
-9.14291e-08
1.53498e-07
2.06552e-07
6.1864e-08
1.70528e-09
3.2137e-09
9.89091e-09
9.03662e-09
4.97322e-09
2.33322e-09
-1.38211e-10
-3.00017e-09
-4.54954e-09
-4.76535e-09
-6.71501e-09
-1.07507e-08
-1.22389e-08
-1.10843e-08
-2.11558e-10
-6.96575e-09
-8.63329e-09
-2.48165e-10
9.25556e-10
4.91432e-11
1.34178e-09
3.91699e-09
5.47757e-11
-7.3282e-10
-1.15197e-08
2.27208e-08
6.2757e-08
-1.47875e-08
2.97567e-08
9.90221e-08
5.58684e-08
2.36473e-09
2.33151e-08
3.63417e-08
5.16992e-08
2.21737e-08
-7.43884e-08
2.50302e-07
2.61689e-07
6.67481e-08
2.08691e-09
3.38189e-09
7.41655e-09
4.35988e-09
1.06219e-09
1.74931e-09
1.59506e-09
-2.28984e-09
-5.83158e-09
-5.75735e-09
-5.59451e-09
-9.67457e-09
-1.60978e-08
-1.719e-08
-3.36486e-09
-2.82561e-09
-8.61727e-09
-1.21428e-09
4.51023e-10
5.15478e-10
2.14641e-09
3.04684e-09
-9.94689e-11
3.3036e-10
2.16142e-09
2.46263e-08
2.79645e-08
-2.54584e-08
1.51809e-08
5.87888e-08
2.88719e-08
1.44085e-09
1.38743e-08
4.24974e-08
5.37023e-08
2.69774e-08
-1.63226e-08
2.79986e-07
2.27809e-07
4.57669e-08
6.29857e-10
3.44862e-09
5.02264e-09
9.84677e-10
-3.8582e-10
2.8868e-09
2.84421e-09
-1.481e-09
-5.03833e-09
-6.73934e-09
-6.70771e-09
-8.30372e-09
-1.55975e-08
-2.0883e-08
-8.13699e-09
-1.77756e-09
-9.98736e-09
-2.80595e-09
-7.75407e-10
1.50998e-09
9.08664e-09
7.68349e-09
8.54387e-10
-7.18789e-11
4.98499e-09
1.02753e-08
-7.43512e-09
-1.90273e-08
-2.09438e-08
-1.81127e-08
-1.83884e-08
-2.86243e-09
-1.01338e-08
-2.55029e-08
1.37088e-08
1.98215e-08
1.97861e-08
1.89373e-07
1.19644e-07
1.63953e-08
-4.19349e-10
2.81844e-09
2.86153e-09
-5.99764e-10
1.45821e-09
8.68591e-09
7.54743e-09
1.04582e-09
-2.69082e-09
-5.41453e-09
-7.18209e-09
-8.58289e-09
-1.47045e-08
-2.27915e-08
-1.32913e-08
-2.19097e-09
-9.22548e-09
1.53442e-09
2.2073e-09
5.39864e-10
1.19235e-08
1.52491e-08
3.41565e-09
-1.29734e-09
-1.97875e-10
3.49691e-09
-1.01681e-08
-6.18819e-09
-4.67019e-08
-7.40966e-08
-5.95708e-08
-1.27172e-08
-1.30609e-08
-8.53852e-08
-4.68806e-08
5.05946e-09
1.06443e-08
5.55369e-08
1.97403e-08
-2.26044e-09
-3.87026e-10
1.77176e-09
1.37363e-09
-2.31694e-10
5.54296e-09
1.72129e-08
1.50085e-08
4.9513e-09
9.86263e-11
-3.2519e-09
-5.62765e-09
-7.35541e-09
-1.31352e-08
-2.37557e-08
-1.80247e-08
-1.90499e-09
-5.75356e-09
4.85487e-09
4.97217e-09
4.095e-10
3.99539e-09
1.2374e-08
6.88701e-09
-1.88778e-09
-1.93461e-09
5.17407e-09
-6.44898e-09
3.43334e-09
-2.98287e-08
-8.50579e-08
-7.56013e-08
-3.10878e-08
9.36925e-09
-4.9457e-08
-7.65139e-08
-1.07326e-08
3.38447e-10
-1.36638e-08
-2.10835e-08
-5.27112e-09
5.81067e-11
7.00226e-10
7.57524e-10
1.4488e-09
9.10504e-09
2.47205e-08
2.56561e-08
1.10105e-08
2.54787e-09
-1.30836e-09
-4.06125e-09
-5.87211e-09
-1.15338e-08
-2.30643e-08
-2.08706e-08
-3.0755e-09
-3.61085e-09
1.11694e-09
3.62158e-09
2.28298e-09
1.18745e-10
3.44494e-09
8.65204e-09
-9.68534e-10
-3.81928e-09
1.4169e-08
3.58746e-09
3.37032e-09
-1.38888e-08
-6.6375e-08
-4.53413e-08
-3.74392e-08
1.28037e-08
2.87406e-08
-5.38102e-08
-1.85478e-08
-1.5782e-10
-1.52176e-08
-1.71843e-08
-2.85708e-09
-2.3164e-11
1.18976e-10
1.21393e-09
2.15604e-09
6.82331e-09
2.07085e-08
3.26995e-08
2.19937e-08
5.92141e-09
3.10234e-10
-2.3916e-09
-5.49764e-09
-1.07926e-08
-1.77113e-08
-1.69827e-08
-3.57107e-09
-2.45718e-09
-4.01801e-09
-1.39152e-09
2.91305e-09
2.4256e-09
-4.62553e-10
2.07962e-09
3.14839e-09
-1.15524e-08
1.41036e-08
2.03069e-08
4.5727e-11
-9.95878e-09
-3.67502e-08
-2.3268e-08
-1.38379e-08
2.71393e-09
2.34586e-08
-4.08671e-08
-3.74382e-08
-7.75915e-10
-1.02622e-08
-1.48232e-08
-4.22071e-09
3.22053e-12
2.58515e-10
2.73916e-09
4.07539e-09
2.85487e-09
6.33064e-09
2.0995e-08
2.76964e-08
1.45315e-08
1.93304e-09
-3.97715e-10
-5.03626e-09
-1.05027e-08
-1.52424e-08
-1.0356e-08
-2.05563e-09
-7.51235e-10
-5.00748e-09
-4.40706e-09
-9.22378e-10
1.24906e-09
5.71585e-10
-1.90167e-11
1.14292e-09
-8.45477e-09
3.20557e-09
2.48992e-08
1.87393e-09
-6.61993e-09
-1.1004e-08
1.69753e-08
1.16742e-08
-8.37437e-11
2.62595e-09
-3.06306e-08
-4.012e-08
-3.32271e-09
-8.23596e-09
-1.76816e-08
-7.81725e-09
-1.1905e-09
6.24384e-10
6.96942e-09
1.28857e-08
8.09849e-09
8.67877e-10
3.02454e-09
7.70053e-09
1.01732e-08
2.89287e-09
-4.10043e-10
-2.65662e-09
-1.23187e-08
-1.68638e-08
-5.66809e-09
-4.86233e-10
-6.07956e-10
-2.70592e-09
-5.65468e-10
7.69538e-10
2.0899e-11
1.21172e-10
5.20634e-13
-4.80025e-10
-5.15413e-09
1.51129e-09
1.74365e-08
-1.29467e-09
6.13736e-09
3.48664e-08
3.62349e-08
7.2857e-09
6.10854e-10
-4.48948e-09
-2.43167e-08
-2.04808e-08
-1.32063e-09
-5.89329e-09
-8.30618e-09
-5.85092e-09
-2.2784e-09
1.16446e-09
7.13562e-09
1.37929e-08
1.29555e-08
2.93386e-09
-8.48984e-10
-1.57625e-08
-2.43564e-08
-1.15732e-08
-5.33582e-09
1.04763e-10
-1.15217e-08
-9.16334e-09
-3.23746e-09
-6.78625e-11
-8.66559e-10
-1.07537e-09
1.55472e-10
5.30348e-10
5.97844e-11
1.48826e-09
1.20843e-09
-1.54947e-10
-3.10335e-09
-2.79845e-12
7.70321e-09
-1.05981e-09
2.00927e-08
3.75832e-08
1.82273e-08
-2.32949e-09
-2.84444e-10
-1.13154e-08
-2.9508e-08
-1.18293e-08
-2.89636e-09
-9.82932e-09
-3.25827e-09
-1.2001e-09
-5.38659e-10
4.38066e-10
-1.74044e-09
-7.66707e-09
8.53358e-09
9.97851e-09
-2.6803e-09
-5.67905e-09
-4.84036e-08
-4.62088e-08
-1.72196e-08
-1.7573e-09
-2.82751e-09
1.94204e-11
-1.07244e-09
-2.98161e-09
-2.48872e-09
-3.64267e-09
-6.85707e-09
-1.38412e-09
1.66673e-09
3.09773e-09
5.76424e-09
1.79485e-09
-7.72905e-10
-3.14065e-09
-1.71061e-09
-1.33596e-09
2.40699e-09
8.23955e-09
3.64213e-09
-7.16567e-09
-4.83251e-09
-2.32482e-09
-1.14414e-08
-4.25045e-09
-3.06725e-09
-7.34765e-09
-2.24207e-09
-2.08339e-11
-2.03196e-09
-8.95434e-09
-2.26011e-08
-3.09992e-08
1.40577e-08
3.43443e-08
-1.22867e-08
-3.7809e-10
-1.83119e-08
-5.50904e-08
-3.1007e-08
-6.17059e-09
-1.3638e-10
-2.86049e-09
-3.7486e-09
-5.10206e-09
-5.55941e-09
-2.81838e-09
-4.68217e-09
-6.71864e-10
6.51284e-09
-1.78279e-09
-1.56067e-11
3.19735e-09
2.04064e-10
-2.69434e-10
2.45939e-11
-8.68607e-10
-4.0426e-09
-5.5976e-09
-3.93782e-09
-2.09841e-09
-2.46008e-09
-1.94608e-09
-2.34909e-09
-1.78832e-09
1.94103e-11
-1.14377e-09
-2.08618e-09
-5.28271e-10
3.80702e-09
1.8372e-09
-1.40783e-08
-1.11294e-08
3.85717e-08
5.60206e-08
-7.72249e-09
-1.97773e-08
7.45326e-10
-2.19129e-08
-2.35689e-08
-9.20316e-09
-3.56501e-09
2.40451e-09
5.49362e-09
5.9934e-09
1.58408e-09
1.34266e-08
2.18308e-08
8.03476e-09
5.52184e-10
-1.04277e-08
-2.03159e-08
-5.49117e-09
-4.77606e-09
-9.44319e-09
-4.53531e-09
-2.61158e-09
-4.50109e-09
-8.45144e-09
-1.2347e-08
-9.43646e-09
-2.2581e-09
-2.89154e-11
-5.84127e-10
-5.2249e-10
-3.04107e-10
-9.4452e-12
-3.13867e-10
-2.12826e-10
1.71246e-09
4.93098e-09
6.51181e-09
4.11239e-09
1.00203e-08
2.09014e-08
-1.18399e-08
-2.57858e-08
-2.88055e-09
-3.02075e-09
-2.46925e-09
2.49746e-09
2.44389e-09
2.18041e-09
3.57352e-09
3.28086e-09
8.13499e-10
1.14321e-08
1.70686e-08
5.39213e-09
-4.97661e-10
-1.55944e-09
-7.58893e-09
-3.06214e-09
-7.57761e-09
-2.47591e-08
-2.29437e-08
-7.84687e-09
-9.01925e-10
2.66283e-10
7.36236e-10
-1.3935e-09
-2.83899e-09
-1.92237e-09
1.55883e-09
3.39578e-09
-1.59728e-10
6.60564e-11
9.58715e-09
1.68612e-08
1.44618e-08
1.05592e-08
8.32183e-09
4.34248e-09
2.81341e-09
9.05666e-09
-1.06734e-08
-4.14009e-08
-1.69335e-08
-1.14395e-10
-1.91451e-10
4.53757e-09
4.26051e-09
9.23881e-10
8.59298e-11
3.21568e-10
4.2588e-10
6.34886e-09
1.16516e-08
4.61775e-09
8.30897e-11
1.22921e-09
6.52833e-09
1.11753e-08
-4.3239e-10
-1.46521e-08
-1.27317e-08
-1.87909e-09
1.78886e-09
-5.89314e-10
-3.17982e-09
-4.57256e-09
-3.40715e-09
-2.73694e-09
-3.36438e-09
-5.24966e-09
-5.6794e-09
-1.35966e-09
6.73891e-09
1.34021e-08
1.14241e-08
5.1553e-09
5.48855e-09
3.30829e-09
1.16692e-10
3.26088e-09
-1.48959e-10
-7.87058e-09
-8.36771e-09
-2.00226e-09
-2.97588e-10
-3.5923e-10
1.16509e-09
6.14456e-12
1.79033e-10
2.76468e-10
1.50203e-09
6.86445e-09
7.47447e-09
-9.53825e-10
1.16596e-10
-1.30935e-09
-6.43977e-09
3.20773e-09
4.79247e-09
-5.82254e-09
-7.40672e-09
2.51564e-09
6.2789e-09
2.00493e-09
3.21228e-11
2.22821e-10
-4.86993e-11
-4.29338e-10
-4.06584e-10
-1.63602e-10
-4.59497e-10
-6.0694e-10
8.93259e-10
1.58323e-09
-1.85466e-10
4.79363e-10
4.18047e-09
3.22095e-09
-1.61618e-10
-8.69675e-10
-7.89343e-09
-7.74343e-09
-1.11073e-09
-5.63132e-11
3.59685e-11
2.46728e-10
5.30664e-11
-3.08919e-10
3.7244e-09
9.50863e-09
6.9778e-09
1.89658e-09
4.71397e-11
-2.61487e-09
-9.66756e-10
7.31624e-10
-7.45944e-09
-8.07214e-09
-9.78833e-10
8.40686e-10
1.4526e-09
4.5606e-09
8.13337e-09
6.69353e-09
1.94089e-09
7.21112e-11
-8.08306e-10
-5.76456e-09
-1.01452e-08
-6.67952e-09
-5.18412e-10
-1.33163e-11
-9.4678e-10
-1.19337e-10
-1.49821e-09
-5.41019e-09
-5.49421e-09
1.71879e-10
-2.31444e-09
-1.2574e-08
-1.00626e-08
-1.66918e-09
-1.10587e-09
-3.12916e-09
-2.58912e-09
9.92561e-10
1.79525e-09
2.83891e-12
-1.09619e-11
-3.06574e-11
-1.05347e-11
-2.86933e-12
-6.24566e-12
-8.38904e-12
2.70803e-12
3.28114e-12
-1.52837e-11
-2.15752e-11
-2.30615e-11
-3.1159e-11
-2.15738e-11
7.9786e-12
4.44885e-11
5.94521e-11
1.86337e-11
-9.76713e-12
2.26046e-11
8.38322e-11
1.25919e-10
1.49991e-11
-2.39708e-10
-3.91184e-10
-5.07969e-10
-5.36018e-10
-4.60127e-10
-1.67856e-10
1.39781e-11
-1.90336e-11
-5.2873e-11
-2.85074e-11
7.87563e-12
1.7164e-11
1.21551e-11
-1.71325e-11
-2.94827e-12
3.78566e-12
1.7083e-12
-7.81997e-11
-1.95164e-10
-7.99873e-11
-2.79214e-11
-3.27161e-10
-5.30487e-10
-4.07491e-10
-8.03004e-11
2.04304e-11
-2.5006e-10
-2.48835e-10
5.61022e-11
-3.72591e-10
-1.27433e-09
-2.14567e-09
-2.65765e-09
-2.20398e-09
-2.52167e-09
-2.51664e-09
3.64489e-09
7.73606e-09
2.24164e-09
-4.643e-10
-1.57828e-09
-2.59245e-09
-3.79083e-09
-4.36532e-09
-3.03495e-09
-5.30247e-10
-1.30558e-09
-5.33357e-09
-5.62025e-09
-2.24513e-09
9.51396e-10
1.09749e-09
-3.7584e-11
-4.37552e-10
-1.67055e-10
8.4373e-11
5.81499e-11
-6.88335e-10
-7.34682e-10
-1.90811e-10
-1.26114e-10
-1.41505e-09
-2.91177e-09
-2.10495e-09
-3.96169e-10
8.14365e-11
-6.99758e-10
-1.52767e-09
4.98134e-11
3.7724e-10
-2.67463e-09
-6.68523e-09
-8.07942e-09
-4.04458e-09
-1.80095e-09
-5.00739e-09
4.66283e-09
2.35253e-08
1.16306e-08
-6.42051e-10
9.05997e-10
-1.63749e-09
-4.00421e-09
-2.99761e-09
-1.00246e-09
1.06925e-10
-2.43178e-09
-9.92694e-09
-1.29818e-08
-7.29092e-09
5.12821e-10
3.18382e-09
1.40048e-09
-1.59656e-10
-2.41953e-10
2.36687e-10
4.30709e-12
-7.81911e-10
-5.68645e-10
-1.34806e-10
-9.0844e-11
-1.3745e-09
-3.79325e-09
-3.25119e-09
-6.71632e-10
-3.2242e-10
7.31685e-10
-1.03661e-09
-1.24378e-09
1.1193e-09
-8.26116e-10
-4.15294e-09
-2.5425e-09
5.211e-09
8.84327e-09
1.60192e-09
1.90574e-09
1.30128e-08
6.37644e-09
3.94792e-09
5.51386e-09
-1.23236e-08
-1.42732e-08
-2.40362e-09
-4.29358e-10
-1.56632e-09
-2.24786e-09
-5.5568e-09
-7.60893e-09
-3.44074e-09
1.83267e-09
1.8766e-09
-4.99978e-10
-6.6867e-10
-1.18932e-10
-6.84974e-12
1.67584e-10
-1.89609e-10
8.29605e-10
2.80001e-10
1.43959e-10
1.08808e-10
-1.97413e-09
-3.15819e-09
-1.09203e-09
-4.01305e-09
-8.01044e-10
2.52232e-09
-2.99173e-09
1.31794e-09
5.18631e-09
6.80782e-09
1.25888e-08
2.05772e-08
2.14018e-08
8.02672e-09
4.70954e-10
-7.90166e-09
-2.52888e-08
1.92763e-09
1.11838e-08
-3.42402e-08
-3.69717e-08
-5.25591e-09
-1.4629e-09
-5.75569e-09
-4.20782e-09
-2.5978e-09
-2.64347e-09
-4.95649e-10
1.63733e-09
-3.02394e-09
-9.94878e-09
-6.44176e-09
-1.84464e-10
3.27652e-10
-2.06318e-10
-1.83688e-11
3.18003e-09
1.78541e-09
4.09337e-10
3.71127e-09
3.98869e-09
2.37821e-10
-3.83474e-10
-6.79503e-09
-1.40903e-08
4.76275e-09
7.98422e-10
-2.70618e-10
1.28259e-08
2.86491e-08
3.95404e-08
4.14642e-08
3.72377e-08
1.93429e-08
3.41093e-09
-1.72534e-09
-5.6978e-08
-1.94879e-08
1.61969e-08
-6.47645e-08
-5.90544e-08
-7.08327e-09
-7.15854e-10
-4.00555e-09
-4.73273e-09
-2.09807e-09
-3.71394e-10
2.07278e-10
1.02708e-09
-4.67225e-09
-1.80399e-08
-1.78329e-08
-3.63566e-09
2.79431e-09
-5.86019e-10
-1.29724e-09
6.45042e-09
5.42225e-09
2.88275e-10
8.84768e-09
1.40628e-08
7.41129e-09
3.55298e-10
-3.10407e-09
-2.78801e-08
-1.71819e-08
7.30552e-09
8.32006e-12
1.43881e-08
5.20573e-08
6.78492e-08
5.58371e-08
4.25402e-08
2.54694e-08
6.16653e-09
2.18172e-08
-6.08714e-08
-5.45382e-08
1.9414e-08
-9.76144e-08
-5.011e-08
1.08353e-08
-4.26981e-10
-1.08841e-09
-1.36692e-09
-1.02975e-09
1.21333e-10
-6.6234e-12
8.61706e-10
-3.96124e-09
-2.00828e-08
-2.92712e-08
-1.34898e-08
3.66466e-09
2.5341e-09
-6.91213e-10
6.19376e-09
9.61822e-09
6.9691e-11
1.48769e-08
2.58693e-08
1.3366e-08
-2.28218e-09
-1.44115e-11
-1.61902e-08
-4.97626e-08
-1.515e-08
5.55546e-10
7.08446e-09
5.56652e-08
7.33296e-08
5.75295e-08
4.02923e-08
2.61043e-08
6.50308e-09
4.67539e-08
-2.06473e-08
-7.59006e-08
1.95447e-08
-1.01683e-07
1.0534e-08
5.27898e-08
2.62638e-09
-3.48123e-09
-1.48213e-09
8.13251e-10
1.4448e-09
6.45506e-10
5.29481e-09
1.88199e-09
-1.42295e-08
-3.15481e-08
-2.46777e-08
-3.08242e-09
5.6131e-09
2.84523e-09
2.54924e-09
1.06079e-08
1.17184e-10
1.65916e-08
3.06921e-08
1.55685e-08
-5.931e-09
-4.85992e-09
5.52207e-09
-3.75385e-08
-4.94898e-08
-3.93891e-09
-3.75225e-10
2.45523e-08
4.28948e-08
3.7992e-08
3.39566e-08
2.89547e-08
4.89893e-09
7.02395e-08
5.01754e-08
-6.1479e-08
1.62201e-08
-6.21134e-08
1.08313e-07
9.98064e-08
8.96723e-09
-4.58312e-09
-1.34438e-09
3.1676e-09
3.90396e-09
7.44049e-10
6.84458e-09
9.89894e-09
-2.20077e-09
-2.27657e-08
-2.71888e-08
-1.28619e-08
-1.20706e-09
-5.15996e-10
-1.32952e-10
4.12952e-09
3.44524e-10
1.35679e-08
1.45455e-08
7.03053e-09
-1.35334e-09
-7.42086e-10
1.13242e-08
5.91995e-09
-4.13584e-08
5.15518e-09
1.4541e-08
-1.62957e-08
-7.59603e-09
1.23321e-08
3.59288e-08
3.00286e-08
3.12984e-09
8.25574e-08
1.1732e-07
-1.38911e-08
1.06462e-08
5.69178e-09
1.89512e-07
1.16678e-07
1.3978e-08
-2.67127e-09
-4.18694e-10
4.45919e-09
6.50288e-09
6.39214e-09
9.58408e-09
1.05552e-08
6.41866e-09
-8.19246e-09
-1.95809e-08
-1.60596e-08
-1.20599e-08
-1.7088e-08
-3.97582e-09
-8.99948e-10
1.09455e-09
5.14766e-09
-8.22808e-09
-4.93918e-09
-2.07168e-10
4.19947e-09
1.92736e-08
2.95189e-08
-5.74387e-09
1.5028e-09
4.16852e-08
-1.30188e-08
-3.05319e-08
3.63856e-09
3.18782e-08
1.37916e-08
2.65632e-09
6.14613e-08
1.30014e-07
3.90082e-08
5.22138e-09
5.70343e-08
1.6744e-07
7.89641e-08
1.07438e-08
-8.29462e-10
4.91584e-10
5.44296e-09
1.05937e-08
1.93872e-08
2.1487e-08
1.2338e-08
7.87281e-09
1.05646e-09
-8.76688e-09
-1.16957e-08
-1.63536e-08
-3.78625e-08
-1.72242e-08
-6.28783e-10
-6.16072e-09
-1.86738e-09
-8.95559e-09
-5.96394e-09
-4.64628e-10
-1.90679e-11
1.08664e-08
3.55319e-08
2.90216e-08
-8.26705e-09
4.99311e-08
3.06409e-08
-3.35671e-08
-2.2471e-08
-1.66463e-08
-1.32053e-08
1.27374e-09
6.17793e-09
8.30774e-08
6.53984e-08
-2.94661e-10
4.08556e-08
6.64744e-08
2.5501e-08
4.16793e-09
-5.80404e-10
9.74279e-10
5.61595e-09
1.53907e-08
3.82194e-08
4.58454e-08
2.1754e-08
8.03463e-09
3.29061e-09
-2.94682e-09
-6.45114e-09
-1.48423e-08
-4.72385e-08
-3.47523e-08
-6.56111e-10
-2.15471e-08
-1.1154e-08
-6.0702e-09
-3.13955e-09
-3.60273e-10
-1.98709e-10
4.48979e-09
3.77895e-08
6.3771e-08
2.68555e-09
3.84956e-08
6.02096e-08
-3.57675e-08
-7.29554e-08
-7.39615e-08
-2.35152e-08
-2.34345e-09
-4.24776e-08
1.72351e-08
5.86467e-08
-1.33309e-09
1.15377e-08
4.77285e-09
3.23436e-09
6.89048e-10
-1.15726e-09
1.00474e-09
2.91024e-09
1.16005e-08
4.45345e-08
7.72206e-08
4.89357e-08
1.21514e-08
3.23081e-09
-1.07424e-09
-4.05617e-09
-1.43284e-08
-4.26491e-08
-3.3855e-08
-2.69159e-09
-2.22876e-08
-1.26837e-08
-3.37509e-09
-8.44678e-10
1.59871e-10
1.91815e-10
8.24069e-10
2.76777e-08
9.16678e-08
3.60769e-08
1.84052e-08
6.70817e-08
-3.34288e-08
-9.79072e-08
-7.18906e-08
-1.47164e-08
-1.60561e-09
-3.78106e-08
-2.60323e-08
3.00468e-08
2.63748e-10
1.08301e-08
1.35327e-08
5.08981e-09
-3.05332e-10
-8.53615e-10
-5.95679e-10
-1.25896e-09
-1.05105e-09
1.61014e-08
7.23873e-08
8.39925e-08
2.66829e-08
2.22339e-09
-3.09546e-11
-3.339e-09
-1.41788e-08
-2.93209e-08
-2.1308e-08
-7.80543e-09
-2.4246e-08
-1.55333e-08
-3.28578e-09
-1.0542e-10
1.41698e-10
1.61774e-10
-3.77334e-11
1.02621e-08
7.67253e-08
6.72496e-08
5.47151e-09
5.58133e-08
-2.68966e-08
-6.83875e-08
-3.12589e-08
-6.88435e-09
3.70875e-10
-9.18968e-09
-3.17427e-08
-4.37608e-09
-2.71508e-09
4.05216e-09
3.81902e-09
-4.11168e-09
-4.87141e-09
-4.711e-09
-2.41867e-09
1.06646e-08
1.6345e-08
1.16496e-09
2.83166e-08
8.76206e-08
5.16998e-08
4.10426e-09
1.68374e-10
-2.34188e-09
-1.18213e-08
-1.75528e-08
-9.8933e-09
-7.73313e-09
-2.90802e-08
-2.52721e-08
-5.4396e-09
5.96838e-10
2.46719e-10
1.35722e-10
-3.20005e-11
4.56897e-09
4.71562e-08
6.1594e-08
2.25951e-09
2.27931e-08
-1.39021e-08
-2.4527e-08
-7.63656e-09
-1.0238e-09
2.27784e-10
2.15179e-09
-1.62115e-08
-1.9609e-08
-4.37641e-09
-6.03418e-10
-1.16239e-08
-1.53138e-08
-1.17077e-08
-1.01811e-08
1.87236e-09
2.57135e-08
3.92747e-08
1.61619e-08
2.23393e-09
4.28563e-08
4.80228e-08
4.89517e-09
-2.41335e-09
-5.46902e-10
-9.41553e-09
-8.60956e-09
-2.50115e-09
-2.98989e-09
-1.87036e-08
-2.10393e-08
-4.23904e-09
4.86316e-09
3.36309e-09
9.67063e-10
1.05299e-11
4.03877e-09
2.97452e-08
4.34599e-08
5.00245e-09
1.01008e-08
6.89789e-09
-2.45476e-10
9.28458e-09
5.0483e-09
5.04061e-11
-3.52639e-10
-8.67686e-09
-1.07688e-08
-9.00881e-10
-1.90599e-09
3.37882e-09
1.04524e-08
2.67065e-09
-2.40101e-09
3.82258e-09
1.70654e-08
2.93672e-08
1.57795e-08
-1.38284e-09
5.44856e-09
-2.45614e-09
-1.82303e-08
-1.20969e-08
9.03793e-10
-4.64066e-09
-7.66055e-10
-1.17075e-10
-2.36411e-09
-1.02645e-08
-1.12261e-08
-3.4525e-09
3.8661e-09
7.51257e-09
4.28716e-09
-9.52812e-10
2.69533e-09
1.79489e-08
2.18165e-08
2.72307e-09
1.11534e-08
1.22223e-08
2.24847e-09
6.20383e-09
-1.09004e-10
-6.15682e-11
-2.0341e-09
-3.00161e-09
8.73013e-10
-1.13748e-09
-1.27762e-08
-2.12308e-09
8.62245e-09
3.62756e-09
-1.1233e-09
6.52606e-10
2.52627e-09
1.31736e-08
-2.12866e-09
-3.04076e-08
1.06383e-09
-2.91659e-08
-7.02619e-08
-4.45423e-08
-5.74972e-09
2.70981e-09
-2.25936e-09
-4.56752e-09
-6.80848e-09
-9.20394e-09
-1.05241e-08
-8.75174e-09
-2.56934e-09
6.34396e-09
6.88531e-09
-3.02596e-09
-5.9491e-10
8.35028e-09
3.80003e-09
6.64121e-10
9.73814e-09
4.44799e-09
-2.39135e-09
-1.35722e-10
-3.0165e-10
7.71704e-10
-6.9436e-10
1.37482e-09
5.23641e-09
-6.9495e-09
-1.42474e-08
-5.25389e-09
-1.15411e-09
-1.27202e-09
-7.38983e-09
-1.8758e-08
-1.64625e-08
5.95603e-09
-1.49015e-08
-7.70055e-08
-3.39735e-08
-1.85826e-10
-5.66699e-08
-5.92127e-08
-2.34371e-08
-4.62067e-09
-1.65991e-08
-1.47518e-08
-8.54487e-09
-4.10594e-09
-1.79996e-09
-1.56347e-09
-3.99964e-09
1.09174e-09
4.99387e-09
-7.78908e-09
-3.59976e-09
6.11826e-09
1.30101e-09
-1.42695e-09
-5.03666e-09
-4.35544e-09
-2.43121e-09
7.88658e-10
2.9476e-09
1.94656e-09
7.41216e-10
-2.28524e-10
5.87299e-10
-9.03858e-10
-3.13771e-09
-4.48979e-09
-7.44155e-09
-1.05389e-08
-1.52892e-08
-2.00394e-08
-2.77915e-09
2.19198e-08
-1.10486e-08
-8.76984e-08
-7.15327e-08
-2.70709e-09
-1.93743e-08
-4.33667e-08
-3.11696e-08
-2.00625e-08
-1.48347e-08
-6.53636e-09
-1.28824e-09
3.67425e-10
1.02889e-08
2.09152e-08
1.15131e-08
2.82847e-10
2.13938e-09
-1.35293e-08
-2.34666e-08
2.82737e-09
1.02846e-08
1.63602e-09
-1.27865e-08
-1.27024e-08
-3.59559e-09
-5.84305e-10
-2.02955e-10
-9.37872e-11
-4.38971e-10
2.32697e-10
-1.86333e-10
2.26394e-10
2.72264e-11
-5.7544e-10
2.45161e-09
6.35153e-09
6.27013e-09
4.44143e-09
6.16289e-09
1.33941e-08
-7.66941e-09
-7.13547e-08
-6.72081e-08
-1.34245e-08
-2.80551e-09
-2.38137e-08
-3.12779e-08
-2.49145e-08
-7.87341e-09
4.76842e-10
3.56845e-09
2.33548e-10
3.94216e-09
1.31427e-08
1.01494e-08
1.01925e-09
6.56915e-10
-6.90782e-09
-2.09473e-08
-7.251e-09
6.33946e-09
1.5694e-09
-3.4569e-09
-2.44887e-09
6.44634e-09
9.97132e-09
2.55815e-09
-1.13711e-10
1.53739e-09
3.43052e-09
1.68973e-09
4.39042e-10
1.01168e-08
2.90564e-08
3.99202e-08
3.38351e-08
2.2856e-08
1.21299e-08
2.43174e-09
1.47285e-09
9.87039e-10
-3.46521e-08
-5.11901e-08
-1.3035e-08
-4.91073e-09
-6.63567e-09
-6.40112e-09
-9.88464e-09
5.68875e-10
9.21566e-11
6.51423e-10
4.2159e-11
1.60853e-09
4.7926e-09
3.09068e-09
1.56701e-10
9.58687e-10
5.44191e-09
1.37308e-08
1.26105e-08
1.89724e-09
-3.65659e-09
-1.19587e-09
1.4657e-10
5.56974e-09
1.39647e-08
8.81863e-09
1.85861e-09
3.3411e-10
2.08974e-10
9.5574e-10
4.81247e-09
9.8598e-09
8.95974e-09
7.01398e-09
1.12617e-08
1.4054e-08
8.88934e-09
1.098e-09
-1.13619e-10
-3.71349e-09
-4.92931e-09
-6.0881e-09
-2.67628e-09
-9.2703e-10
-5.34689e-09
-2.6498e-09
1.05139e-09
5.40756e-11
1.75245e-10
4.83915e-10
9.94729e-10
2.25337e-09
1.98236e-09
1.99445e-10
1.21581e-09
1.8719e-09
9.39314e-11
4.23262e-09
1.02397e-08
6.39051e-09
1.51798e-09
1.87926e-09
5.17648e-10
4.10619e-09
1.41043e-08
1.42756e-08
5.77288e-09
2.4915e-10
-4.67962e-10
8.67946e-10
2.48373e-09
2.35882e-09
9.06616e-10
1.88552e-10
9.10549e-10
3.77115e-09
4.56293e-09
1.77963e-09
-2.42467e-09
-1.52521e-08
-2.14068e-08
-7.68833e-09
-1.41695e-10
-1.29121e-10
4.98641e-10
7.56702e-10
4.03195e-10
2.60771e-10
2.01684e-10
2.8463e-09
2.18063e-09
5.06759e-11
-6.90501e-11
-9.55782e-10
1.6187e-10
1.35683e-09
4.30638e-10
1.91524e-09
2.19977e-09
7.26076e-10
2.28502e-09
5.48736e-09
6.89622e-09
5.34623e-09
2.26618e-09
2.41067e-10
-1.26364e-09
-3.60122e-09
-1.49712e-09
4.52295e-09
5.28635e-09
1.1742e-09
-4.61191e-10
-5.99863e-11
-1.36878e-09
-3.41728e-09
-2.69338e-09
1.96368e-09
-3.48124e-09
-1.67554e-08
-1.69658e-08
-8.95964e-09
-3.80465e-09
-3.03686e-09
-4.97033e-09
-4.92779e-09
-1.01341e-09
-5.83113e-12
1.78794e-12
6.07737e-15
5.98634e-13
8.83918e-12
7.66591e-12
7.23596e-14
-1.26145e-11
-1.23337e-11
-6.19963e-12
-7.26848e-12
-7.31577e-12
-8.04485e-12
1.01331e-13
4.5271e-11
5.65981e-11
1.06588e-12
-3.61861e-11
-7.28449e-12
-3.40866e-11
-1.44929e-11
2.83546e-11
1.44949e-11
-5.77036e-11
-1.8427e-10
-2.78817e-10
-2.36756e-10
-1.09254e-10
4.46396e-14
-5.04634e-12
-5.51418e-11
-3.08247e-11
4.4279e-12
-2.15092e-11
-9.28233e-11
-7.10832e-11
3.08537e-14
-7.91167e-12
-3.64818e-11
-2.20845e-11
2.32536e-10
2.22022e-10
-7.02321e-11
2.32929e-11
1.66239e-10
2.94179e-11
-1.03807e-10
-8.60666e-11
-5.51507e-12
4.86918e-12
1.87291e-10
4.42163e-10
4.56892e-10
4.72383e-10
4.63371e-10
-1.07866e-11
-1.17052e-09
-2.56836e-09
-4.46632e-09
-3.83812e-09
2.80094e-09
2.97978e-09
2.92623e-10
-1.65999e-09
-5.22724e-09
-6.83355e-09
-3.87802e-09
-3.72924e-10
-5.29721e-11
-2.75365e-09
-4.40151e-09
-2.88155e-09
-7.59805e-10
-1.53349e-10
-4.22605e-10
7.96181e-11
2.94923e-11
-4.40058e-10
-1.56686e-10
6.15515e-11
1.06031e-09
1.06343e-09
-3.64776e-11
1.0093e-10
3.10578e-10
-2.15249e-10
-2.14332e-10
2.19364e-11
1.40554e-10
7.92187e-11
-1.85047e-11
8.44149e-10
1.98036e-09
2.46736e-09
2.64286e-09
2.64664e-09
2.08968e-09
7.23974e-10
-2.68643e-09
-6.78755e-09
5.07813e-09
1.00837e-08
2.72753e-09
-1.60373e-09
-1.0612e-08
-1.58367e-08
-8.29727e-09
-8.02225e-10
-7.41209e-10
-6.81628e-09
-1.1309e-08
-8.49714e-09
-2.88456e-09
-5.57463e-11
-1.76451e-10
-3.05878e-10
1.06283e-10
-4.80873e-10
-1.84547e-10
2.91621e-10
3.39962e-10
8.30637e-10
-1.33699e-11
1.47693e-10
6.59037e-13
-1.05282e-09
-4.19485e-10
-6.60004e-11
-2.86982e-10
1.95147e-10
1.02504e-10
5.23979e-10
2.89962e-09
5.24103e-09
7.50658e-09
8.84862e-09
7.9396e-09
6.14127e-09
5.3866e-09
1.61082e-10
2.41481e-09
-1.38642e-09
-3.09669e-09
1.47474e-09
-1.19277e-08
-2.35581e-08
-1.01801e-08
-3.69028e-10
-1.88484e-09
-7.30908e-09
-1.11245e-08
-8.17983e-09
-2.59951e-09
-4.27072e-10
-6.35631e-10
-3.6464e-10
-1.42102e-10
7.54903e-10
8.43661e-10
-5.37408e-10
-4.16799e-09
-6.13955e-10
7.43702e-11
1.98543e-10
-2.28652e-10
-2.44715e-09
-1.0006e-09
-3.81545e-10
-1.4355e-09
-8.73693e-11
7.34228e-10
2.01297e-10
3.70635e-09
1.01103e-08
1.60559e-08
1.8104e-08
1.41627e-08
9.76368e-09
9.17963e-09
2.73632e-09
1.4191e-09
-1.42469e-08
-2.73574e-08
2.07718e-09
-1.3996e-08
-4.3696e-08
-2.01801e-08
-4.89415e-10
-2.80645e-09
-6.91643e-09
-9.32935e-09
-7.58969e-09
-3.39644e-09
-2.36596e-09
-4.30425e-09
-3.05354e-09
-1.07082e-09
2.07397e-09
4.74501e-09
-1.04602e-09
-1.38665e-08
-5.04939e-09
1.01554e-09
1.69445e-10
6.50406e-10
-3.22926e-09
-2.03943e-09
-6.34571e-10
-3.6734e-09
-1.01185e-09
2.44024e-09
9.28602e-10
2.98212e-09
1.28231e-08
2.294e-08
2.66405e-08
1.99138e-08
1.36907e-08
1.48391e-08
5.63262e-09
-5.46208e-10
-4.83008e-10
-4.81568e-08
-6.48464e-09
-1.2163e-08
-7.03357e-08
-4.22435e-08
-2.32907e-09
-3.12927e-09
-6.76593e-09
-6.43195e-09
-5.58132e-09
-3.32986e-09
-1.87297e-09
-5.05398e-09
-7.17989e-09
-3.58668e-09
1.4385e-09
8.69051e-09
2.66626e-09
-2.07923e-08
-2.09187e-08
2.13098e-09
4.29994e-10
2.01583e-09
-2.28101e-09
-3.60645e-09
-2.91923e-10
-4.53691e-09
-2.69445e-09
4.88914e-09
4.55326e-09
1.91609e-09
8.33317e-09
1.82347e-08
2.20012e-08
1.66491e-08
1.265e-08
1.62472e-08
8.59089e-09
-2.96751e-09
1.52591e-08
-5.30646e-08
-2.7841e-08
-5.43419e-09
-8.22143e-08
-5.68986e-08
-5.04151e-09
-1.83638e-09
-2.99697e-09
1.35682e-09
1.30889e-09
-5.25994e-10
9.44598e-10
-2.58062e-10
-6.89478e-09
-7.32231e-09
-5.15437e-10
9.86419e-09
9.87343e-09
-1.37415e-08
-4.24938e-08
2.68066e-11
2.22996e-09
1.88379e-09
-9.54906e-11
-5.07849e-09
-1.01168e-09
-1.56462e-09
-3.18441e-09
6.55538e-09
1.25541e-08
4.33268e-09
-2.84728e-10
4.72972e-09
8.59666e-09
7.39295e-09
7.21607e-09
1.83011e-08
1.23743e-08
-3.09227e-09
3.0734e-08
-4.78082e-08
-5.0527e-08
1.05266e-09
-6.60558e-08
-4.28872e-08
-1.97203e-09
8.12536e-10
4.8421e-09
1.32444e-08
1.00226e-08
-8.08237e-10
-1.84143e-09
4.26332e-09
7.05083e-10
-7.3754e-09
-3.50095e-09
8.34546e-09
1.45762e-08
-1.70832e-09
-4.50212e-08
-7.2697e-09
5.60955e-09
4.84345e-10
1.14845e-09
-6.98959e-09
-4.57536e-09
-5.50264e-10
-2.38231e-09
1.02791e-09
1.99148e-08
1.80206e-08
1.84311e-09
1.14586e-10
1.81086e-09
7.47328e-10
3.7375e-10
2.38057e-08
1.8766e-08
-1.21944e-09
5.93114e-08
-1.82097e-08
-5.20724e-08
2.71859e-09
-3.1777e-08