/*--------------------------------*- C++ -*----------------------------------*\
| =========                 |                                                 |
| \\      /  F ield         | OpenFOAM: The Open Source CFD Toolbox           |
|  \\    /   O peration     | Version:  5.0                                   |
|   \\  /    A nd           | Web:      www.OpenFOAM.org                      |
|    \\/     M anipulation  |                                                 |
\*---------------------------------------------------------------------------*/
FoamFile
{
    version     2.0;
    format      ascii;
    class       volScalarField;
    location    "50.4676134421789371";
    object      produw;
}
// * * * * * * * * * * * * * * * * * * * * * * * * * * * * * * * * * * * * * //

dimensions      [0 2 -3 0 0 0 0];

internalField   nonuniform List<scalar> 
60000
(
-2.30516e-09
-2.98952e-09
-1.02051e-09
6.69177e-10
2.89804e-11
-5.05967e-10
-4.54409e-10
-1.49039e-10
-4.14674e-10
-5.94265e-10
-1.07077e-09
-1.64299e-09
-8.05647e-10
-4.29342e-10
2.06958e-10
1.7561e-09
-1.55654e-09
-8.93814e-09
-1.81328e-08
-1.97264e-08
-2.036e-08
-1.77849e-08
-1.98283e-08
-2.08214e-08
-5.11557e-09
8.71809e-09
3.03085e-09
-1.04106e-08
-1.03143e-08
-2.95623e-09
3.30227e-09
1.00497e-08
1.58207e-08
1.35494e-08
2.5855e-09
-3.48876e-09
8.54173e-10
-7.70315e-10
-9.74011e-10
-8.70196e-10
-2.29886e-08
-1.7143e-08
-1.13724e-09
-2.98182e-10
-9.4761e-09
-7.5811e-09
-4.10215e-10
6.94863e-10
-5.02449e-09
-1.66921e-08
-3.05552e-08
-2.65997e-08
-4.37245e-09
-4.70206e-10
-6.68614e-09
-2.23577e-08
-5.38746e-08
-7.04252e-08
-3.96415e-08
2.37821e-08
9.38412e-09
-7.96363e-08
-1.11799e-07
-3.66325e-08
9.51297e-08
2.0594e-07
1.91553e-07
6.47826e-08
-1.93115e-08
-1.70882e-09
2.08639e-08
2.1403e-08
5.36795e-08
7.78025e-08
5.4286e-08
-1.38843e-09
-4.766e-09
1.28686e-08
1.0997e-08
-9.99868e-09
-2.01381e-08
-2.78817e-08
-4.19536e-09
-2.23462e-09
-1.62527e-08
-1.70652e-08
-8.15715e-09
2.33972e-09
-4.46187e-09
-1.50674e-08
-2.83147e-08
-3.89551e-08
-1.60933e-08
5.23854e-10
-1.10874e-08
-4.2032e-08
-8.63911e-08
-1.10938e-07
-6.26358e-08
4.78587e-08
1.83341e-08
-1.35191e-07
-4.6526e-08
1.47636e-07
2.36592e-07
2.50488e-07
2.06157e-07
1.15098e-07
3.03373e-08
6.54202e-09
1.28711e-08
-1.87594e-09
-2.02228e-11
3.0586e-08
4.49641e-08
1.77529e-08
-8.72786e-09
1.10334e-08
3.21923e-08
1.14543e-08
2.6441e-08
-1.50904e-08
-6.62549e-09
-1.58007e-09
-1.58275e-08
-1.81661e-08
-1.46115e-08
-5.51339e-10
-5.24999e-10
-5.8691e-10
3.21681e-09
-9.67033e-09
-1.41227e-08
5.5281e-10
-1.72021e-08
-6.97857e-08
-1.20682e-07
-1.53372e-07
-1.15721e-07
2.85555e-08
3.94986e-09
-2.05311e-07
5.34556e-08
3.48888e-07
2.90234e-07
1.41578e-07
6.91018e-08
6.16697e-08
5.38235e-08
3.96333e-08
2.59088e-08
-3.49731e-09
-3.66644e-08
-3.92567e-08
-1.82601e-08
1.98665e-09
-3.20574e-09
-1.57927e-09
4.70002e-08
5.43101e-08
8.30173e-08
3.9558e-08
-6.35837e-09
-6.31551e-10
-1.08996e-08
-1.11733e-08
-5.84244e-09
-3.24045e-09
-1.4139e-09
5.39263e-09
9.64259e-09
1.89915e-08
-5.51435e-09
-2.60052e-09
-1.02217e-08
-1.08539e-07
-1.90283e-07
-2.03319e-07
-1.51322e-07
4.23489e-08
6.1196e-08
-2.71267e-07
6.35219e-08
5.19465e-07
3.36918e-07
8.09344e-08
1.68101e-08
4.52027e-08
5.83933e-08
5.45702e-08
4.25689e-08
2.0699e-08
-9.08842e-09
-3.19021e-08
-4.01677e-08
-2.20524e-08
3.41294e-09
-1.73013e-08
1.68108e-08
6.83854e-08
6.41164e-08
9.63935e-08
4.22682e-08
4.06499e-09
-4.87962e-09
-8.04952e-09
8.48841e-10
7.87946e-10
-6.0361e-09
5.52702e-09
9.89261e-09
1.86544e-08
1.81038e-08
-1.16294e-08
-1.02688e-09
-1.56779e-07
-2.98176e-07
-2.18913e-07
-1.07828e-07
6.48887e-08
1.6976e-07
-2.86409e-07
-1.50237e-09
5.68015e-07
2.62991e-07
-4.95303e-09
-8.22963e-09
3.15824e-08
4.40335e-08
3.78046e-08
2.5782e-08
1.53451e-08
7.95803e-09
5.46727e-09
4.10954e-09
-1.4642e-08
-1.51105e-08
-2.39543e-08
-3.04437e-08
1.99586e-08
1.58053e-08
6.8143e-08
9.89019e-08
3.26662e-08
2.90013e-09
-3.05083e-09
-3.11063e-10
7.50406e-10
-4.5089e-09
-2.0277e-09
4.3486e-09
-1.03015e-09
1.90075e-08
-4.8702e-09
-3.57279e-09
-2.57061e-07
-4.87156e-07
-2.38132e-07
-3.50636e-08
5.05357e-08
2.20151e-07
-2.38468e-07
-1.21487e-07
3.75672e-07
2.23809e-08
-8.79749e-08
-2.57392e-08
1.81727e-08
3.44721e-08
3.83937e-08
3.08471e-08
1.23382e-08
3.60009e-09
1.12877e-08
3.63267e-08
4.63177e-08
-4.59428e-10
-2.52988e-08
-3.92803e-08
-2.59918e-08
-7.31135e-09
1.89155e-08
8.1585e-08
5.96425e-08
8.63099e-09
-6.40454e-10
3.38916e-10
1.03956e-09
-3.38305e-09
9.42119e-09
-2.38421e-08
-8.78793e-08
-7.444e-08
1.50286e-09
-3.31883e-09
-4.38845e-07
-6.19075e-07
-2.364e-07
-8.50898e-09
-2.52716e-08
8.40049e-08
-1.97432e-07
-2.52312e-07
1.16278e-07
-1.28061e-07
-1.28221e-07
-6.06724e-08
5.63376e-10
2.7091e-08
3.39825e-08
3.3524e-08
1.94622e-08
-6.03109e-11
-5.24394e-09
1.67601e-08
6.13666e-08
4.94919e-08
-4.13986e-09
-2.36337e-08
-2.11039e-08
1.67234e-08
2.74984e-10
3.94232e-08
6.11726e-08
1.54589e-08
-3.01653e-09
3.74703e-10
5.53088e-09
1.47815e-09
1.45862e-08
-2.34457e-08
-1.78793e-07
-1.83272e-07
2.21391e-08
-1.03134e-08
-4.79132e-07
-4.91007e-07
-1.58567e-07
-6.72857e-09
-4.26868e-08
-9.13882e-08
-2.07664e-07
-3.16746e-07
3.2675e-08
-7.02795e-08
-1.3005e-07
-8.49648e-08
-1.08645e-08
2.06753e-08
2.66236e-08
2.17999e-08
7.51662e-09
-8.43517e-09
-1.44901e-08
-5.50389e-09
2.90256e-08
5.62988e-08
3.05456e-08
1.96636e-09
2.94252e-09
4.38927e-08
2.75653e-08
7.70943e-09
7.06525e-08
3.82032e-08
1.44669e-09
2.0298e-09
9.42693e-09
9.42738e-09
6.69952e-09
-1.51653e-08
-1.89987e-07
-1.64438e-07
3.6244e-08
-3.35767e-08
-2.5721e-07
-1.88833e-07
-4.69433e-08
-2.43105e-09
-9.24975e-09
-6.61347e-08
-1.59668e-07
-2.40265e-07
1.02046e-07
9.05368e-08
-7.56969e-08
-6.04732e-08
-8.14476e-09
1.44772e-08
1.76888e-08
1.14274e-08
-1.4855e-09
-1.53392e-08
-1.81722e-08
-9.5879e-09
4.94138e-09
2.67979e-08
3.48939e-08
2.58427e-08
1.99552e-08
3.81294e-08
5.41603e-08
-1.67629e-09
1.03473e-07
9.57573e-08
1.46945e-08
1.00797e-09
5.19676e-09
5.94908e-09
4.42465e-09
-5.70184e-09
-1.37218e-07
-1.2187e-07
3.80132e-08
-4.01032e-08
-2.55166e-08
2.4285e-08
2.59715e-08
3.57152e-09
6.89401e-11
8.82458e-09
-2.99438e-08
-9.68462e-08
1.15728e-07
1.79203e-07
4.52919e-08
2.68126e-09
4.29197e-10
8.13144e-09
9.06605e-09
5.7088e-09
-8.46779e-10
-1.1161e-08
-1.35686e-08
-6.20081e-09
7.18496e-10
5.50817e-09
1.20142e-08
1.52051e-08
1.35309e-08
1.34748e-08
4.32325e-08
-2.79565e-09
1.08705e-07
1.15901e-07
2.32525e-08
-1.05713e-09
-4.72614e-09
-9.10633e-09
-1.0816e-09
-6.24023e-10
-6.29068e-08
-1.04258e-07
4.81117e-08
-3.59558e-08
3.16515e-08
9.86883e-08
6.33187e-08
1.08816e-08
-2.38048e-09
2.92166e-09
2.49709e-08
-1.0813e-08
4.15789e-08
1.41805e-07
1.2061e-07
3.6343e-08
3.08143e-09
3.31111e-09
2.71164e-09
-1.85134e-09
-9.08373e-09
-1.32184e-08
-6.81519e-09
-4.15489e-09
-1.02878e-09
3.13158e-09
1.75755e-09
-1.47233e-10
-2.04786e-09
6.03644e-09
2.30648e-08
-1.74231e-09
5.06107e-08
5.77785e-08
1.52267e-08
1.166e-09
-1.18929e-09
-1.25036e-08
-7.02686e-09
-5.62538e-10
-3.01264e-08
-1.0443e-07
2.15597e-08
-1.05763e-08
-1.43343e-09
9.0906e-08
7.47962e-08
3.12016e-08
-7.85547e-09
3.92102e-09
3.60573e-08
1.88271e-08
4.65022e-09
8.7458e-08
7.80654e-08
1.58807e-08
5.41888e-10
7.0052e-10
-1.35171e-09
-7.94524e-09
-2.56007e-08
-3.74521e-08
-2.58621e-09
6.13701e-09
-5.69802e-09
2.50051e-09
1.27083e-09
-2.47043e-09
-1.99324e-09
1.21618e-08
1.54446e-08
1.85056e-09
3.10345e-09
7.25157e-09
2.13079e-09
-4.3915e-09
-1.84707e-10
-5.17097e-09
-1.03044e-08
2.53768e-10
-8.00215e-09
-8.12911e-08
-4.1164e-08
2.32838e-08
-5.72976e-09
6.23681e-08
8.90559e-08
6.67558e-08
-2.37848e-09
3.49263e-08
1.02917e-07
3.46667e-08
1.52874e-09
1.70243e-08
-4.51789e-09
-2.23693e-09
-2.58761e-10
-3.12927e-09
-7.11826e-09
-6.38243e-09
-1.88474e-08
-5.62682e-08
-1.50513e-08
4.46267e-08
4.86642e-09
-1.99084e-09
4.32403e-10
-5.01989e-09
6.44567e-10
1.38448e-08
1.43385e-08
2.30215e-09
-3.50512e-09
-5.18495e-09
-6.73189e-09
-8.95809e-09
-6.31532e-09
-4.94469e-10
-6.06752e-09
-1.13707e-09
4.82521e-09
-2.3797e-08
-6.79026e-08
5.99878e-09
-3.9612e-09
5.61339e-08
9.30495e-08
4.42848e-08
4.45471e-09
5.69871e-08
1.98925e-07
1.19122e-07
7.78546e-09
-7.90623e-09
2.43563e-09
7.5193e-09
5.10287e-10
-4.92053e-09
-1.75825e-08
-2.06207e-08
-3.96454e-09
-2.96917e-08
-4.4143e-08
7.53921e-08
7.31732e-08
2.4787e-10
5.92965e-10
-6.00583e-09
-1.56032e-09
1.3938e-08
1.43994e-08
4.83672e-09
-4.06222e-09
-1.03515e-08
-7.29366e-09
-1.67725e-09
2.4343e-10
1.12705e-10
-9.69661e-10
1.08762e-09
1.19355e-08
-2.80345e-09
-4.1698e-08
-1.66558e-08
6.6468e-09
3.06769e-08
5.6874e-09
-6.46174e-09
2.85027e-09
3.02496e-08
1.19357e-07
1.57557e-07
2.58696e-08
1.36098e-08
6.43016e-08
3.629e-08
4.18592e-09
-8.74452e-09
-3.42294e-08
-5.18733e-08
-2.77253e-08
-3.00076e-10
-4.39882e-08
2.51133e-08
1.40883e-07
5.3911e-08
3.49039e-10
-2.18667e-09
-1.66333e-09
9.64965e-09
7.40613e-09
1.82772e-09
-1.59351e-09
-7.61052e-09
-4.82184e-09
-8.51013e-10
-8.87508e-12
-6.38854e-11
5.04747e-12
4.6299e-09
1.75452e-08
-1.73173e-09
-1.87111e-08
1.23605e-09
4.67252e-09
-2.43592e-08
-3.05706e-08
-5.54534e-09
1.33261e-09
1.91172e-08
5.20586e-08
6.22485e-08
5.56607e-09
4.12734e-08
9.23308e-08
3.6241e-08
-4.91962e-09
-1.62261e-09
-1.269e-08
-4.2802e-08
-4.29453e-08
-4.86715e-09
-9.70284e-09
-8.30834e-09
1.30443e-07
1.27245e-07
1.9995e-08
-2.49968e-10
9.19905e-10
5.82769e-09
2.02697e-09
7.39348e-10
-3.05269e-09
-4.39523e-09
-1.60345e-09
-4.8238e-09
-1.24137e-09
1.68484e-09
3.30986e-10
1.6629e-09
1.32759e-08
1.12143e-09
-1.43891e-08
1.40859e-09
-9.97848e-09
-3.73652e-08
-2.03007e-08
6.59213e-09
8.1084e-10
1.14797e-08
3.28322e-08
2.42367e-08
1.89085e-08
2.63056e-08
5.80981e-09
-1.96872e-08
-1.5103e-08
-2.27449e-10
-1.28183e-08
-4.15888e-08
-5.35242e-08
-5.70698e-09
7.55675e-09
6.16549e-09
1.04376e-07
1.638e-07
6.63321e-08
1.90729e-09
3.44144e-09
1.88237e-10
-1.39478e-09
-1.30596e-08
-2.10059e-08
-1.25814e-08
-9.19579e-09
-1.08954e-08
2.2959e-09
9.01126e-09
1.9853e-09
-3.15906e-09
2.67297e-09
1.38955e-08
5.92882e-09
4.95469e-10
-5.96922e-09
-1.07974e-08
4.34677e-09
1.86746e-08
8.206e-09
6.69871e-11
5.27469e-09
-1.1353e-09
5.36068e-09
-1.26378e-09
-7.0318e-09
-3.62726e-09
-8.09748e-09
2.92405e-09
3.42603e-08
1.60268e-08
-3.21948e-08
5.98713e-08
1.05616e-07
4.47663e-09
4.97136e-08
1.51713e-07
1.13644e-07
2.95365e-08
2.52763e-09
1.85604e-08
2.37873e-08
-6.803e-09
-2.14938e-08
-1.32039e-09
-2.19385e-08
-3.97631e-08
-1.87172e-08
-4.14077e-09
-2.34641e-09
-2.01953e-09
-1.37675e-08
-4.7982e-09
3.15723e-09
-1.88636e-09
4.00951e-09
1.35088e-08
1.62524e-08
1.09615e-08
5.33465e-09
5.81626e-10
4.85897e-10
2.15828e-09
-2.14618e-10
-3.396e-09
-6.64731e-09
-4.0888e-09
7.34488e-09
1.88855e-08
2.69395e-08
1.85048e-08
-2.52366e-08
3.03948e-08
1.90493e-07
1.00532e-07
-4.24887e-09
6.14879e-08
8.31981e-08
4.05696e-08
1.55333e-08
1.38602e-08
1.71585e-08
9.91967e-09
5.40552e-11
2.98669e-09
-5.73356e-09
-1.41345e-08
-9.0468e-09
1.20418e-09
3.92775e-09
7.43628e-10
-1.11369e-08
-1.87597e-09
1.12575e-08
9.13707e-09
6.05481e-09
9.03907e-09
1.33736e-08
1.09798e-08
3.47783e-09
-9.64493e-11
1.40583e-11
3.50617e-10
5.82012e-10
2.89907e-11
-3.12366e-10
2.04846e-09
3.01663e-09
-2.00061e-09
-6.47639e-09
-3.44964e-09
-1.07841e-08
-2.91329e-08
4.40543e-08
1.02095e-07
1.46825e-08
1.9995e-08
6.63487e-08
4.99364e-08
2.18316e-08
6.80273e-09
-3.24906e-09
-2.56133e-09
1.01881e-09
-2.61864e-09
-4.09656e-09
-1.36518e-09
-5.18994e-10
4.4996e-09
7.89193e-09
6.61e-10
-8.28531e-09
8.44187e-09
3.49424e-08
2.35684e-08
2.46009e-09
4.17336e-10
3.7243e-09
4.08971e-09
2.41241e-09
6.01385e-10
-2.62079e-09
-6.01526e-09
-2.1757e-09
6.08843e-09
6.38351e-09
-1.76445e-09
-1.02804e-08
-1.54234e-08
-1.48947e-08
-8.16594e-09
-4.80105e-09
-9.63776e-09
-1.13028e-10
3.52205e-08
2.74017e-08
1.88719e-10
1.91087e-08
3.80382e-08
2.6293e-08
1.71687e-09
3.40399e-10
4.35215e-10
9.71436e-10
7.48214e-09
1.45787e-08
8.72549e-09
3.55832e-10
5.35013e-10
-1.09403e-09
-1.95614e-09
-6.80663e-12
7.72134e-10
4.96531e-09
-1.35199e-09
-5.36935e-09
7.27927e-09
1.39728e-08
9.99503e-09
5.82901e-09
3.9716e-09
3.58887e-09
4.3102e-09
2.09172e-09
-6.78129e-09
-1.56084e-08
-1.49329e-08
-8.7076e-09
-9.08899e-09
-1.13207e-08
-3.75614e-09
-4.57977e-10
-4.13754e-09
-7.64926e-10
3.158e-09
1.57463e-09
-1.24984e-09
2.88149e-09
8.21279e-09
6.44626e-09
7.71651e-11
8.19336e-10
9.60526e-12
-1.01996e-09
7.03938e-09
1.73235e-08
3.40569e-09
-1.13509e-08
6.03901e-09
1.52669e-08
-9.33066e-10
-6.06871e-09
6.98831e-09
1.15136e-08
3.04544e-09
-4.13904e-09
-2.67845e-09
-1.43009e-09
-3.73595e-09
-5.6963e-09
-7.55175e-09
-1.01197e-08
-1.23604e-08
-1.23258e-08
-8.91643e-09
-3.39199e-09
3.9924e-09
1.28049e-08
1.50334e-08
7.92174e-09
1.50799e-09
1.04495e-10
7.30341e-09
1.64854e-08
8.99784e-09
1.84339e-09
-2.3635e-10
-1.40904e-09
-7.75182e-10
-1.63798e-10
-1.23557e-09
1.2267e-09
1.33617e-09
-1.98334e-09
1.39723e-11
-2.24858e-09
-2.26135e-08
-2.90109e-08
-5.38008e-09
1.02123e-08
1.005e-08
3.73581e-09
-2.03238e-09
-8.11531e-09
-1.77071e-08
-1.94044e-08
-1.08677e-08
-3.08636e-09
-3.83817e-10
1.11169e-09
5.67824e-09
1.13101e-08
1.223e-08
7.1419e-09
2.74333e-09
6.63547e-10
4.68525e-10
6.99227e-09
1.46353e-08
1.29728e-08
7.40603e-09
6.31087e-09
5.8476e-09
4.88109e-09
4.7222e-09
5.17873e-09
6.05717e-09
5.73635e-09
3.17525e-09
-4.25896e-10
1.20804e-10
-6.86665e-10
-1.75023e-10
3.91634e-10
3.508e-10
4.73155e-10
-3.14178e-10
-2.41873e-10
1.39919e-09
1.88458e-09
1.56948e-09
1.34605e-09
1.74902e-09
2.7518e-10
-2.05661e-09
-4.34564e-09
-6.21422e-09
-1.0979e-09
1.05565e-08
4.39393e-09
-8.96112e-09
-6.69405e-09
-1.10494e-08
-2.2999e-08
-3.22343e-08
-3.50948e-08
-3.04639e-08
-2.51582e-08
-1.30221e-08
1.94338e-09
1.4324e-08
1.9782e-08
1.73327e-08
9.96269e-09
-4.2326e-10
-4.53509e-09
-1.87664e-09
-3.71022e-10
-2.83761e-11
-4.57084e-11
-3.06694e-09
-4.38097e-09
-1.3168e-09
7.51039e-10
5.33254e-09
8.21313e-09
4.43426e-09
-7.75471e-10
-1.07982e-09
-3.34886e-09
-1.9213e-09
1.23271e-08
3.0711e-08
4.49248e-08
5.90922e-08
6.67044e-08
5.45303e-08
5.19809e-08
1.02002e-07
1.15598e-07
4.63432e-08
1.48139e-08
-5.48695e-08
-1.21606e-07
-1.2532e-07
-1.00555e-07
-8.76159e-08
-6.18414e-08
1.02519e-08
9.71184e-08
1.67713e-07
2.02544e-07
1.78774e-07
1.14589e-07
4.23704e-08
-4.2967e-09
-6.22264e-09
-3.21746e-09
-2.10328e-09
-2.23258e-09
-7.50049e-09
-9.18587e-09
-2.20308e-09
3.89651e-09
1.67704e-08
2.38953e-08
1.59944e-08
3.88609e-09
1.63062e-09
-1.28608e-08
-2.2362e-08
-9.37752e-10
2.52966e-08
4.22394e-08
5.6046e-08
5.97699e-08
4.4504e-08
2.87892e-08
5.03261e-08
8.34713e-08
5.50583e-08
7.97837e-08
-2.18617e-08
-9.16316e-09
2.93919e-08
-6.271e-09
-3.84872e-08
-2.14415e-08
1.88045e-08
5.83064e-08
9.81118e-08
1.38095e-07
1.46073e-07
1.07713e-07
5.98168e-08
2.18986e-08
1.22208e-08
1.62004e-09
-8.28554e-09
-4.38205e-09
-5.07459e-09
-1.05892e-08
-1.96313e-09
1.33148e-09
1.2646e-08
1.79625e-08
6.96534e-09
-3.74334e-09
6.4643e-09
-5.0602e-09
-2.86148e-08
-6.14819e-09
1.11101e-08
9.46733e-10
-2.55729e-08
-4.66432e-08
-3.74939e-08
-1.16132e-08
-2.76405e-09
9.73562e-09
2.78598e-08
1.63609e-07
-3.57739e-08
9.80018e-08
2.96191e-07
1.27193e-07
-3.46778e-09
3.39868e-09
2.54566e-08
5.98611e-09
-2.37855e-08
-2.34513e-08
-1.38859e-09
1.50419e-08
3.73262e-08
5.60756e-08
5.59723e-08
3.1015e-08
-1.04041e-08
-4.92319e-09
4.94849e-10
-7.36608e-09
-2.92098e-09
-7.67856e-10
8.78888e-09
1.86668e-08
3.62089e-09
-1.06632e-08
8.9083e-09
1.68094e-08
-3.47364e-08
-2.14804e-08
5.63e-09
-2.93575e-08
-1.19298e-07
-1.76011e-07
-1.15559e-07
-2.22578e-08
-2.34422e-09
-8.08729e-09
7.35804e-08
3.09022e-07
2.30505e-08
5.03674e-08
5.33624e-07
2.40889e-07
9.50436e-09
9.59453e-09
3.68921e-08
1.74025e-08
-2.43684e-08
-4.39192e-08
-3.23945e-08
-1.22244e-08
2.84034e-08
1.05907e-07
1.5175e-07
1.13778e-07
1.35045e-08
-1.18633e-08
-1.15591e-08
6.77212e-10
-3.05994e-09
-2.08236e-09
-2.60705e-10
1.87044e-08
1.58256e-08
-5.44785e-09
1.70374e-08
4.88743e-08
1.10539e-09
-3.09739e-08
-1.89849e-09
-6.96154e-08
-2.59519e-07
-3.44804e-07
-1.89655e-07
-3.16755e-08
8.10797e-09
-3.50974e-08
4.41001e-08
3.50351e-07
1.77865e-07
-7.12685e-08
6.63475e-07
2.79402e-07
-2.79132e-09
6.15023e-09
2.96646e-08
2.75209e-08
1.00073e-08
-4.83289e-09
-4.41196e-09
5.68896e-10
2.36386e-08
9.15915e-08
1.91625e-07
2.0579e-07
8.63267e-08
-1.18335e-08
-3.77686e-08
-6.06582e-09
3.61067e-09
-3.09578e-09
-2.02165e-08
-9.39934e-09
1.59813e-08
1.09019e-08
1.82665e-08
8.13426e-08
4.95883e-08
3.09247e-09
1.12454e-09
-1.11864e-07
-3.94144e-07
-4.27818e-07
-1.67989e-07
-7.71848e-09
2.58484e-08
-2.52691e-08
-2.65593e-08
2.66949e-07
2.81335e-07
-1.54525e-07
5.33797e-07
1.43671e-07
-4.23575e-08
8.54116e-11
2.89933e-08
3.32445e-08
1.73441e-08
6.05222e-09
9.25556e-09
6.23691e-09
1.80575e-08
6.94248e-08
1.51155e-07
2.22956e-07
1.56167e-07
3.12892e-08
-1.534e-08
-6.52148e-08
9.95954e-09
-1.97128e-09
-4.28139e-08
-6.37308e-08
-2.23482e-08
2.25701e-08
-1.45044e-08
7.13946e-08
1.02247e-07
2.15024e-08
3.66444e-09
-1.40435e-07
-4.04902e-07
-3.21709e-07
-8.50561e-08
2.22069e-08
3.59005e-08
-5.26173e-09
-5.75141e-08
1.05712e-07
2.62966e-07
-1.73585e-07
2.52097e-07
-6.96391e-09
-5.26519e-08
-7.00347e-09
2.32021e-08
2.58813e-08
-9.00101e-09
-3.99219e-08
-2.4338e-08
-8.78574e-09
-1.19853e-08
3.70804e-08
1.04581e-07
1.60329e-07
1.54209e-07
9.1108e-08
9.87039e-08
-1.09678e-07
-2.85546e-08
-1.45381e-10
-4.50581e-08
-8.80451e-08
-6.80435e-08
4.98734e-09
-2.26198e-09
-6.28615e-08
1.23293e-07
4.98558e-08
-4.14078e-08
-1.03141e-07
-2.14179e-07
-1.30348e-07
-1.5245e-08
2.36649e-08
2.2968e-08
2.97771e-09
-5.97087e-08
-5.28815e-08
1.44201e-07
-1.48103e-07
7.1838e-08
-2.36816e-08
-3.05809e-08
-1.36643e-08
1.11925e-08
9.12145e-09
-3.29963e-08
-7.49437e-08
-5.74065e-08
-1.0419e-08
-9.9043e-09
-6.91161e-09
5.81598e-08
9.44416e-08
9.27393e-08
9.39295e-08
2.26354e-07
1.16679e-08
-6.7934e-08
-3.09702e-10
-3.62957e-08
-4.03987e-08
-2.93081e-08
-1.66048e-08
7.65577e-09
-5.44299e-08
-5.62122e-08
1.11432e-07
-4.52515e-08
-2.32767e-08
1.86785e-09
-1.91516e-09
-3.68896e-09
-2.59808e-09
2.52781e-09
1.9325e-09
-5.69849e-08
-1.30639e-07
3.3612e-09
-9.26498e-08
4.79248e-08
4.80588e-08
-1.6756e-08
-2.30147e-08
-5.38233e-10
-2.92936e-09
-3.53664e-08
-6.96907e-08
-5.89331e-08
-1.15651e-08
1.08384e-08
-5.58091e-09
1.18173e-08
4.29946e-08
3.73151e-08
5.91136e-08
2.64323e-07
2.46332e-07
-4.14585e-08
1.86801e-08
-1.29628e-09
2.20375e-08
1.85679e-08
8.47003e-09
-3.81219e-09
8.19508e-09
-5.84432e-08
5.79719e-09
5.27908e-09
-7.08085e-08
2.0042e-08
2.95024e-08
6.75973e-10
-1.48736e-08
-3.27713e-09
-3.57448e-09
-4.59634e-08
-1.09483e-07
-7.25587e-08
-3.71227e-08
9.57357e-08
6.05122e-08
-3.24333e-08
-2.2393e-08
-5.29102e-09
-8.02489e-09
-2.66827e-08
-4.66478e-08
-4.89313e-08
-1.64639e-08
1.34738e-08
3.4486e-09
-1.03506e-09
1.1549e-08
5.13207e-09
2.08909e-08
1.76633e-07
3.55797e-07
-1.00601e-08
5.84695e-08
6.22373e-08
3.90058e-08
1.49317e-08
1.02122e-08
2.28594e-09
1.18193e-08
4.12266e-08
-4.44432e-08
2.86435e-08
-1.26137e-07
-1.64827e-07
-2.80702e-08
1.47961e-08
5.55852e-09
-1.07645e-09
-4.50768e-09
-9.17423e-09
-6.39624e-08
-8.55096e-08
3.95385e-09
5.23214e-08
-9.66612e-09
-1.24123e-08
-8.19163e-09
-4.89183e-09
-8.50637e-09
-1.50455e-08
-1.94967e-08
-3.09179e-08
-1.06986e-08
1.78454e-08
5.02273e-09
-4.51645e-09
4.75122e-09
-1.94421e-11
-2.4192e-09
7.51314e-08
2.29363e-07
-6.97352e-09
6.05803e-08
9.12663e-08
3.2872e-08
2.33708e-09
2.38786e-09
4.17366e-09
-7.07059e-10
3.36325e-08
-2.98853e-08
-1.32793e-08
-6.52947e-08
-2.83921e-07
-9.24323e-08
4.77703e-08
2.04667e-08
-4.41865e-09
-7.56393e-10
3.15626e-08
-1.74823e-08
-6.84619e-08
3.2032e-09
-1.15797e-08
-4.39756e-09
2.05346e-09
-4.41593e-09
-5.20502e-09
-9.6212e-09
-6.20073e-09
2.05039e-09
-1.5957e-08
3.98114e-09
4.91844e-08
1.9674e-08
-3.50924e-09
2.42349e-09
4.54959e-09
2.25902e-10
4.13069e-08
7.95132e-08
-1.18423e-08
2.13837e-08
3.18274e-08
6.51021e-09
-1.58274e-09
-3.46081e-10
1.74152e-09
-3.01914e-09
-1.92323e-08
-5.47816e-08
-6.33043e-08
1.1506e-08
-2.01027e-07
-7.51454e-08
6.41161e-08
8.07897e-09
1.69859e-09
-1.41719e-09
3.31723e-08
3.42323e-08
-3.09501e-08
-3.30065e-09
9.9308e-09
8.24787e-09
-1.1086e-09
-5.30674e-09
-2.24731e-09
-1.61387e-09
-6.51733e-09
7.57086e-10
-7.85322e-09
-7.28965e-09
9.33722e-08
7.40924e-08
7.00954e-09
1.11654e-10
5.8868e-09
1.47252e-08
3.53407e-08
2.45512e-08
-9.72455e-09
-1.64131e-08
-7.71485e-09
-2.11637e-09
-2.058e-10
-4.33229e-11
-7.55666e-10
6.9368e-11
-3.09367e-08
-9.85087e-08
-9.5711e-08
2.27534e-08
-7.34485e-08
-2.49831e-08
5.08813e-08
1.94392e-08
2.08431e-08
-3.54523e-09
1.38709e-08
8.21389e-08
2.55168e-08
7.83849e-09
1.63526e-08
1.07351e-09
1.65245e-08
3.03428e-08
2.01344e-08
7.17045e-09
-3.34321e-08
-5.05413e-08
-1.92124e-09
-2.43614e-08
8.67114e-08
1.72311e-07
5.18635e-08
9.67958e-10
3.20766e-09
1.82325e-08
3.17224e-08
1.53178e-08
-7.37744e-09
-1.64866e-08
-1.77621e-08
-7.36495e-09
1.60281e-10
-8.21118e-12
-3.14356e-10
2.10405e-10
-2.21536e-08
-1.10903e-07
-1.03684e-07
1.63511e-09
-1.14893e-08
-5.12872e-09
3.12699e-08
2.88784e-08
1.26548e-08
-3.77937e-09
-3.15809e-09
6.90771e-08
9.08611e-08
2.72496e-08
2.16989e-09
6.8694e-08
1.18535e-07
7.12357e-08
1.90363e-08
-1.53973e-08
-6.97081e-08
-1.28821e-07
-6.07273e-08
-4.57299e-09
2.82343e-08
2.33458e-07
1.56735e-07
1.8885e-08
1.36413e-09
1.69813e-08
1.75707e-08
7.4438e-09
-3.67428e-09
-9.5588e-09
-1.4894e-08
-8.90524e-09
-1.87685e-09
-1.55318e-09
-7.92814e-10
-9.8894e-11
-2.10815e-08
-1.02004e-07
-1.04607e-07
-1.19343e-08
-7.59625e-09
-3.01377e-08
-1.94796e-08
-8.89625e-09
-7.34191e-10
-5.12996e-10
-3.04615e-09
1.95474e-08
4.82234e-08
7.29855e-09
3.00379e-08
1.14792e-07
1.01659e-07
3.79502e-08
-8.5448e-10
-3.05726e-09
-2.44586e-08
-8.77163e-08
-1.12172e-07
-1.61527e-08
1.30778e-09
1.87098e-07
2.72997e-07
8.56523e-08
3.25288e-09
9.08153e-09
1.65459e-09
2.72169e-10
-1.67381e-10
-4.92257e-09
-1.00449e-08
-6.44259e-09
-9.97333e-09
-1.20671e-08
-4.9625e-09
7.05289e-10
-1.42056e-08
-7.80034e-08
-8.08749e-08
-6.61828e-09
-2.52434e-08
-5.75368e-08
-3.0425e-08
-8.36521e-09
-1.8789e-09
-1.75123e-09
3.63833e-09
1.19895e-08
2.45368e-08
1.64619e-08
3.54785e-08
5.42257e-08
2.5014e-08
-9.87401e-09
-1.17631e-08
9.2203e-10
-9.26814e-09
-1.89463e-08
-3.08811e-08
-3.99036e-08
-2.93958e-10
6.92121e-08
2.4238e-07
1.65995e-07
3.40487e-08
2.78347e-09
3.80475e-09
5.88908e-09
4.21331e-09
-1.008e-08
-1.14008e-08
-9.31268e-09
-1.8055e-08
-1.91822e-08
-1.04822e-08
3.95978e-10
-2.72478e-09
-3.63695e-08
-2.03144e-08
-1.49802e-09
-4.6999e-08
-3.59018e-08
-1.03828e-09
-1.418e-09
-4.1257e-09
1.12126e-09
-6.52701e-10
-4.44678e-10
1.25148e-08
2.90255e-08
2.38501e-08
-2.72642e-09
-1.01575e-08
-7.41813e-09
-7.91255e-09
1.84602e-09
-2.15647e-09
-5.02492e-09
1.00687e-07
1.0874e-07
1.59459e-08
3.20558e-09
8.66675e-08
1.09845e-07
4.06553e-08
9.08943e-09
6.316e-09
1.64101e-08
1.11634e-08
-2.46383e-09
3.72821e-10
-1.07207e-08
-2.62858e-08
-2.53305e-08
-1.68051e-08
-2.47886e-09
2.24743e-09
-2.01451e-08
-9.47887e-09
-4.53635e-09
-1.90109e-08
-8.09333e-09
1.74301e-09
9.81969e-10
1.6374e-09
2.88695e-09
4.9238e-10
-9.4476e-10
6.09356e-10
2.85915e-09
4.15642e-10
-6.47908e-09
-1.26551e-08
-5.57338e-09
1.44617e-08
2.71246e-08
7.95197e-09
5.93484e-09
1.59901e-07
3.14618e-07
1.55567e-07
6.10926e-09
1.83395e-08
4.14761e-08
1.61307e-08
1.77043e-09
1.72136e-08
1.16035e-08
5.34909e-09
-2.47349e-09
-3.59496e-09
-5.36182e-09
-7.78529e-09
-9.26353e-09
-9.47585e-09
4.71048e-10
1.23591e-08
-1.66454e-08
-3.58491e-08
-1.37738e-08
-3.32032e-09
-4.14249e-09
6.63363e-10
3.3703e-09
9.79663e-10
1.07807e-09
3.12887e-09
1.03089e-09
1.77003e-10
1.82324e-09
1.1e-09
-2.07931e-09
-1.38437e-09
-7.00108e-10
-4.07341e-09
-7.05231e-09
-7.87751e-09
-9.22073e-09
4.45822e-08
2.30688e-07
2.45469e-07
4.70531e-08
9.2573e-09
6.03533e-08
6.18348e-08
3.55936e-08
3.24272e-08
4.31553e-09
-1.06548e-09
5.45073e-10
-5.39292e-09
-1.19091e-08
-6.02621e-09
3.04131e-11
2.04922e-10
5.40361e-09
8.51576e-09
-3.43368e-09
-1.29151e-08
1.38804e-08
1.4989e-08
-2.50409e-09
4.63299e-09
3.89548e-09
1.61775e-09
8.59782e-10
-1.0388e-09
-2.08608e-09
-2.24365e-09
2.01287e-09
2.73082e-09
-8.41962e-09
-2.65524e-08
-3.52144e-08
-3.00512e-08
-1.74845e-08
-5.06629e-09
-6.39253e-10
1.74332e-09
4.10344e-08
1.04387e-07
5.69991e-08
-2.80164e-09
3.99017e-08
8.68626e-08
7.35895e-08
6.81516e-09
-8.48565e-10
-2.34697e-09
-2.88776e-10
1.46969e-09
3.80732e-09
3.89114e-09
7.43642e-11
-2.50292e-09
-4.89581e-09
-8.27581e-09
-1.01426e-09
7.96959e-09
1.32556e-08
3.724e-09
2.21203e-09
7.32794e-09
-1.69603e-08
-2.50139e-08
-8.77937e-09
-6.4039e-10
-1.9169e-10
-3.38672e-09
-1.42916e-08
-2.69139e-08
-2.48371e-08
-1.24664e-08
-6.02671e-09
-3.9894e-09
-1.7738e-09
-1.32944e-12
2.10897e-10
1.36559e-09
1.87132e-09
4.16706e-09
2.34717e-09
1.43915e-09
1.22997e-08
2.13693e-08
1.71189e-08
-1.38309e-10
-2.40282e-10
-7.99796e-10
4.64752e-10
7.09889e-09
1.05483e-08
1.02823e-09
-8.90934e-09
-3.60386e-09
6.23875e-09
-3.12985e-09
-1.71685e-08
-9.38886e-09
-2.14234e-10
-2.79652e-10
-1.4406e-10
-1.51051e-09
-1.2233e-08
-1.79564e-08
-1.12777e-08
-4.12486e-09
-3.1574e-09
-6.42589e-09
-1.05266e-08
-9.23396e-09
-3.51052e-09
1.13285e-09
8.98452e-09
1.66898e-08
1.48732e-08
4.01006e-09
2.90215e-09
1.74543e-08
1.39579e-08
3.93985e-09
1.69101e-09
-1.22012e-09
-1.39479e-09
7.96794e-10
8.92409e-10
-2.25887e-10
2.3938e-09
2.49271e-09
2.76081e-10
5.18387e-11
-5.0731e-09
-1.35738e-08
-1.2962e-08
-4.21269e-09
2.65172e-09
4.0692e-09
9.97676e-10
-1.90256e-09
-6.09371e-09
-1.30256e-08
-1.49748e-08
-9.57555e-09
-2.77005e-09
-1.31016e-10
2.14817e-10
4.08433e-09
8.14607e-09
5.40605e-09
2.01407e-09
3.98603e-09
2.83819e-09
2.30678e-10
1.32505e-08
3.39065e-08
3.50887e-08
1.61739e-08
5.4425e-09
1.65344e-08
2.60088e-08
1.79004e-08
9.7613e-09
7.4253e-09
6.04337e-09
3.64043e-09
4.03742e-10
-1.27346e-10
3.72604e-10
4.97556e-10
-1.21231e-09
-1.12512e-09
-3.93459e-10
-1.60515e-10
-7.27951e-10
-2.98721e-10
1.11367e-09
1.86754e-09
1.10349e-09
-2.06231e-09
-6.4131e-09
-6.62818e-09
-1.07052e-08
-1.62188e-08
-1.56934e-08
-2.66247e-09
8.04317e-09
7.66217e-09
1.11679e-09
3.67538e-10
-4.154e-09
-1.08732e-08
-1.19901e-08
-9.01625e-09
-6.22723e-09
-1.088e-09
6.11494e-09
1.05241e-08
7.11598e-09
1.1627e-09
-9.47739e-10
2.92372e-09
4.00168e-09
1.17307e-09
-5.60756e-10
-2.68018e-10
1.06299e-09
5.82111e-09
8.81161e-09
-3.02181e-09
-3.02305e-09
3.87548e-09
1.50619e-09
-1.27165e-09
-2.27062e-09
-8.36839e-11
-3.59024e-10
7.5929e-10
1.50298e-09
-4.54253e-09
-1.03993e-08
4.08234e-09
1.19011e-08
1.22797e-08
3.97317e-08
1.18153e-07
1.69456e-07
1.66438e-07
9.42132e-08
8.79775e-09
-3.40709e-08
-5.95131e-08
-5.9339e-08
-3.78113e-08
-3.43935e-09
5.40481e-08
1.27066e-07
1.6959e-07
1.34744e-07
5.537e-08
-2.39785e-09
-5.13533e-09
1.61485e-08
9.75945e-10
-2.49961e-08
-1.31213e-08
1.08887e-09
1.61016e-08
2.03695e-08
-1.40578e-09
5.8104e-12
7.87221e-09
3.42183e-09
1.19033e-09
1.76888e-09
6.26491e-09
2.25488e-09
-7.53003e-09
-1.25958e-08
-1.59214e-08
-1.42946e-08
-3.76236e-09
1.67758e-09
-2.29718e-09
4.71673e-10
3.99193e-08
1.04694e-07
1.60357e-07
1.75709e-07
6.85606e-08
-3.09204e-08
3.62304e-09
-1.83917e-10
-2.13967e-08
-6.37196e-09
3.4929e-08
8.96351e-08
1.4177e-07
1.39809e-07
8.20074e-08
2.2841e-08
-4.28284e-09
-3.75557e-09
3.35249e-09
-2.43899e-08
-3.17307e-08
4.93503e-09
1.89686e-08
2.27969e-08
1.64974e-10
7.5702e-10
6.8096e-09
4.00939e-09
3.98919e-09
1.13761e-09
2.03134e-09
1.02243e-09
-3.02891e-09
-7.24055e-09
-1.2069e-08
-2.18076e-08
-2.75955e-08
-2.1075e-08
-5.74889e-09
7.36296e-10
-8.50775e-09
-1.41922e-09
6.30545e-08
2.01371e-07
1.99982e-07
-4.51542e-08
8.56909e-08
1.37244e-07
3.19871e-08
-2.65728e-09
6.16279e-10
-6.99922e-09
6.28956e-09
2.80701e-08
2.76552e-08
2.11598e-08
2.14091e-08
9.43001e-09
1.51181e-08
1.34513e-08
-2.76566e-08
8.60076e-09
3.09986e-08
2.33246e-08
1.21947e-09
1.337e-10
3.49617e-09
1.38931e-09
5.11251e-09
-1.27472e-09
-7.35406e-09
-6.24668e-09
-2.10881e-09
-5.01621e-09
-1.07685e-08
-2.9759e-08
-4.28397e-08
-2.35956e-08
1.43872e-08
3.4219e-08
1.15264e-08
-2.20371e-08
2.4666e-08
1.80431e-07
3.77628e-07
-1.33957e-08
7.53405e-08
2.91459e-07
9.86782e-08
7.96231e-10
6.06768e-09
-1.1032e-08
-2.15651e-08
-2.96211e-09
1.45497e-08
2.65533e-08
4.98392e-08
5.23916e-08
4.42223e-08
6.90067e-08
2.06225e-08
3.58979e-08
8.56411e-08
3.28994e-08
2.13874e-09
-1.53691e-09
1.95441e-09
-1.4262e-09
4.68801e-09
-3.63007e-10
-1.78144e-08
-2.16029e-08
-8.84309e-09
-8.75575e-09
-2.04997e-08
-4.31357e-08
-5.27473e-08
-1.76749e-08
3.58845e-08
6.65226e-08
4.44397e-08
-2.97416e-08
-7.32503e-09
7.60669e-08
3.45872e-07
1.20461e-07
-1.77848e-08
3.8028e-07
1.66355e-07
6.18993e-09
9.20444e-09
1.12044e-08
-1.56607e-09
3.86393e-09
1.6479e-08
2.21359e-08
4.10527e-08
7.25429e-08
7.6068e-08
8.99752e-08
7.16728e-08
1.01304e-07
2.1999e-07
7.83034e-08
5.02067e-09
-3.63363e-09
1.95881e-09
-9.33339e-10
2.55407e-09
2.89582e-09
-1.31883e-08
-3.3831e-08
-2.92405e-08
-1.70301e-08
-2.44302e-08
-3.8969e-08
-3.68554e-08
2.80716e-09
4.83627e-08
8.75017e-08
9.20973e-08
5.69659e-09
-1.44002e-08
7.84867e-09
1.89578e-07
2.09702e-07
-8.40232e-08
3.12493e-07
1.54695e-07
7.73901e-09
2.78258e-09
1.08383e-08
2.38891e-09
-2.94787e-09
5.45475e-09
9.58885e-09
9.69826e-09
4.17451e-08
8.09179e-08
9.77373e-08
9.82813e-08
1.73853e-07
3.83148e-07
2.10806e-07
1.61382e-08
-3.31484e-09
-5.95116e-10
-2.39939e-09
-2.04193e-10
1.84625e-09
2.44638e-09
-1.06345e-08
-2.69935e-08
-1.32117e-08
-3.71923e-10
-1.49209e-08
-2.02541e-08
4.65205e-09
3.54504e-08
9.52444e-08
1.34445e-07
5.33223e-08
5.31936e-10
-2.86685e-08
1.07281e-07
2.05144e-07
-6.63454e-08
1.54573e-07
6.23439e-08
-8.45194e-09
-5.99979e-09
-8.82621e-09
-3.22935e-08
-5.37354e-08
-3.48543e-08
6.54607e-09
1.82675e-09
-3.31864e-09
4.09342e-08
8.07761e-08
1.00027e-07
2.20366e-07
4.70854e-07
4.09053e-07
5.62283e-08
-1.47773e-10
-1.02051e-09
-7.13782e-09
-1.7638e-09
-2.67477e-10
1.69115e-09
7.96049e-09
2.05507e-08
4.41737e-08
8.84034e-08
4.91583e-08
-6.51321e-09
-1.55636e-09
1.4478e-08
8.47179e-08
1.35032e-07
7.1902e-08
8.07676e-09
-7.74261e-08
4.10156e-08
1.48801e-07
-3.10962e-08
4.53556e-08
-4.34881e-09
-2.23263e-08
-1.58022e-08
-2.36763e-08
-6.06692e-08
-9.91432e-08
-8.9991e-08
-1.58109e-08
3.83336e-08
2.37608e-09
7.228e-10