/*--------------------------------*- C++ -*----------------------------------*\
| =========                 |                                                 |
| \\      /  F ield         | OpenFOAM: The Open Source CFD Toolbox           |
|  \\    /   O peration     | Version:  5.0                                   |
|   \\  /    A nd           | Web:      www.OpenFOAM.org                      |
|    \\/     M anipulation  |                                                 |
\*---------------------------------------------------------------------------*/
FoamFile
{
    version     2.0;
    format      ascii;
    class       volScalarField;
    location    "50.4676134421789371";
    object      Ptt;
}
// * * * * * * * * * * * * * * * * * * * * * * * * * * * * * * * * * * * * * //

dimensions      [0 0 -1 2 0 0 0];

internalField   nonuniform List<scalar> 
60000
(
-5.69853
-6.18311
-4.52459
-1.32126
0.670408
0.794802
0.52189
0.490201
0.544818
-0.131808
-2.08517
-3.08015
-1.95715
-1.63712
-2.9397
-4.08324
-0.84706
3.16483
6.40498
7.13972
7.5876
4.05063
-0.0748818
-0.470368
3.76011
5.75328
2.49398
-2.80535
-4.87997
-3.68055
-3.09998
-4.90104
-6.9028
-7.50283
-5.15731
1.17686
-0.312398
-2.21956
-3.61168
-4.50081
-18.8143
-15.0151
-4.88956
4.09805
6.25155
1.45779
-1.52187
-1.28081
0.358155
-4.62793
-11.1182
-12.5323
-4.71187
2.53839
2.72608
2.15411
5.00287
7.88692
2.29003
-7.74847
-10.5801
-7.32536
0.97108
19.317
40.8752
50.8062
37.8955
10.0702
-11.3379
-11.8968
-4.11604
-4.13789
-10.9337
-17.4327
-19.1078
-4.43222
5.63884
-0.514262
-10.2415
-17.0391
-3.20106
-3.01533
-1.10326
0.524731
0.948779
0.299489
-0.293175
-0.350989
0.183081
-0.371809
-1.61078
-2.60079
-1.61823
0.0991681
0.724809
0.967486
1.26124
1.38497
-0.580864
-4.67259
-7.08151
-5.32073
-0.367452
7.06745
13.0998
14.9402
11.2063
3.65915
-3.15413
-4.3254
-1.64569
0.0823884
-0.582737
-2.33194
-3.99516
-2.46016
0.633793
1.1756
-0.0584674
-1.85745
-0.0856399
-0.0779142
-0.0215433
0.00377463
-0.0102166
-0.0238789
-0.0388746
-0.021382
0.00298225
-0.00553017
-0.0306502
-0.0371384
-0.0183729
-0.00668512
-0.0166039
-0.030934
-0.0935407
-0.27461
-0.411898
-0.285418
-0.241267
-0.114995
0.111987
0.333948
0.466881
0.492672
0.373469
0.0578976
-0.331348
-0.320974
-0.113149
-0.0472212
-0.0630931
-0.122557
-0.238986
-0.179786
0.00403244
0.0159463
-0.0200128
-0.0559521
0.00231644
0.00130938
-0.00313264
0.00160389
0.00996194
0.0149147
0.0136136
0.0019928
-3.01716e-05
-0.00276973
-0.00310615
0.0125869
-0.00911427
-0.011774
0.0513933
0.0926735
0.0758352
-0.0362822
-0.157489
0.197719
0.397634
0.0349144
-0.1276
-0.0300831
0.0344744
0.0166916
-0.000807854
0.000244317
0.0271795
0.121635
0.0920051
0.00815347
0.00149325
0.00997682
0.000334293
0.00070665
0.00349707
0.000894402
0.00688969
-0.00139018
-3.57844e-05
-0.0059492
-0.00920861
-0.00102614
0.0061528
0.00804256
0.00889578
0.00536348
0.000653433
0.000595828
-0.000667401
0.0028547
-0.0108355
-0.0301411
0.0216077
0.0610947
0.0519625
0.019077
-0.041453
0.18696
0.450001
-0.00774459
-0.196145
0.077656
0.120514
0.0317728
0.00355583
-0.000346877
-0.000150757
0.0299349
0.0539449
0.0107816
-0.000206154
0.00908443
0.00640583
-0.000470746
-0.00026676
0.00313428
0.0144659
0.00838239
0.000737198
-0.000843926
-0.00210692
-0.000798916
0.000852223
0.00127314
0.00159335
0.00186921
0.000657226
0.00013653
-9.84415e-07
0.000472536
-0.000346793
-0.00941431
4.29013e-06
0.0141174
0.0113171
0.00470752
-0.00330022
0.103342
0.320093
0.024952
-0.109617
0.0844292
0.0518674
0.00618536
5.9257e-05
-2.24129e-06
0.000331978
-1.15349e-05
0.0060434
0.00748029
0.000146619
-0.0015326
0.000874472
0.000575304
-0.000187072
8.78932e-05
0.00262966
0.00288216
0.000159644
1.56235e-06
-0.000114992
-5.32795e-05
4.81352e-05
4.8433e-05
4.54296e-05
0.000176872
0.000145552
1.21934e-05
-1.39368e-06
0.000106953
0.000216461
-0.00150542
-0.000592222
0.00179614
0.00121145
-0.00253485
-5.99539e-05
0.0274551
0.157314
0.0183189
-0.0382226
0.0372815
0.011771
0.000693961
2.29153e-05
-1.10139e-05
1.8726e-07
5.5089e-05
-2.12155e-06
0.000400113
0.000771004
8.47706e-06
-0.00035137
5.06042e-05
4.91739e-05
3.46598e-06
0.000113638
0.000243046
5.53855e-06
4.79798e-06
3.68277e-06
3.61859e-06
3.15764e-06
-1.24866e-07
1.69357e-08
2.85777e-06
1.02735e-05
6.1985e-07
9.22356e-06
6.61285e-05
8.73671e-05
-0.000279215
-0.000151856
0.000194384
-1.22969e-05
-0.000581111
-0.000581451
0.00150348
0.0476061
0.00755247
-0.00948789
0.0110794
0.0025457
0.000141228
4.84658e-07
-1.09947e-06
7.08532e-07
6.12985e-08
1.71161e-06
-1.78496e-07
1.37145e-05
6.24403e-05
7.94294e-06
-2.2555e-05
4.75625e-06
2.97266e-06
-2.00902e-07
1.19686e-06
-6.64426e-07
-8.75297e-08
6.88534e-07
4.67266e-07
3.72588e-07
2.04291e-08
-1.69812e-09
1.13471e-08
4.1362e-07
1.27669e-07
1.6078e-06
2.12467e-05
2.19641e-05
-4.5407e-05
-2.55433e-05
2.21173e-05
-6.99187e-05
2.61431e-05
-0.000177453
-0.000267536
0.00794518
0.00257839
-0.00201271
0.00270217
0.000487763
1.87425e-05
5.30915e-07
-8.79676e-10
5.85798e-08
7.90355e-09
-9.76455e-10
5.41949e-09
7.16728e-08
2.06538e-07
2.42479e-06
2.07455e-07
-7.90924e-07
6.9938e-08
-3.3392e-07
-6.69698e-07
-1.17843e-08
-1.7613e-08
3.59748e-08
2.24903e-08
2.01559e-09
1.26853e-10
-3.00414e-10
-2.69856e-09
6.16784e-09
7.42013e-09
-4.03011e-09
2.02179e-06
3.12813e-06
-4.33793e-06
-9.05086e-07
6.70672e-07
-3.48436e-06
-7.00607e-06
-8.8583e-06
-4.76055e-06
0.000648063
0.000603993
-0.000395376
0.000416822
6.27559e-05
1.72514e-06
-8.0997e-09
-1.04119e-09
0
7.54906e-11
4.33923e-11
-8.07526e-12
9.8106e-12
4.06933e-10
3.77622e-10
-1.51046e-10
-4.56872e-10
-4.09049e-09
-3.87422e-09
7.43169e-09
-1.31673e-09
-9.81233e-10
5.48047e-10
8.44964e-11
0
-2.11099e-23
-3.17421e-23
1.67497e-12
-8.30755e-11
3.97508e-10
5.58693e-10
1.8591e-07
1.0585e-07
-6.31493e-07
1.73697e-07
-9.57299e-09
-9.70915e-09
-2.56674e-07
1.93371e-08
1.08124e-06
2.11211e-05
7.32093e-05
-4.93074e-05
3.14283e-05
5.81077e-06
4.2545e-07
7.93211e-10
-0
4.66152e-24
0
1.46474e-23
4.39685e-23
0
-1.07552e-22
-0
8.1864e-24
7.19232e-23
-3.1136e-11
-6.24167e-22
-3.40871e-11
0
0
0
0
0
0
0
0
0
0
6.6573e-10
1.83266e-09
1.67204e-08
-7.18585e-09
3.15997e-09
3.75443e-10
2.64704e-09
1.45421e-09
1.24099e-09
2.69711e-08
1.76445e-07
4.42293e-06
-2.92735e-06
1.02078e-06
4.49443e-07
1.63394e-09
0
-0
0
0
0
0
0
-0
0
0
0
0
0
0
0
0
0
0
0
0
0
0
-0
0
0
-6.66769e-11
-6.9267e-10
-2.10086e-10
0
0
0
-5.71081e-11
-1.69016e-10
-1.27496e-11
5.65706e-10
2.22667e-09
-1.44328e-08
2.00645e-09
1.41153e-10
0
0
0
0
0
0
0
0
0
-0
-0
0
0
0
0
0
0
0
0
0
0
0
0
0
0
0
0
0
0
0
0
0
0
0
0
0
0
0
0
0
0
0
0
0
0
0
0
0
0
-0
-0
0
-0
0
0
0
0
0
-0
6.44329e-30
-0
5.49951e-30
0
0
8.47169e-30
0
0
0
0
0
0
0
0
0
0
5.03831e-25
7.34197e-26
0
0
1.42228e-25
-1.52717e-26
0
0
-0
-3.73861e-29
1.32112e-28
0
0
0
8.56531e-30
1.7254e-28
0
0
-0
1.48606e-29
0
0
0
0
0
-0
0
-6.79605e-31
0
-0
6.52636e-30
1.62305e-29
4.23726e-29
5.55787e-27
2.02536e-27
9.75067e-29
9.60702e-32
-1.77239e-30
1.02871e-28
2.38092e-28
7.66193e-28
3.197e-28
-3.96205e-27
-2.26682e-27
9.32905e-28
1.56196e-28
2.46943e-29
6.91829e-30
-1.13515e-29
1.03834e-29
-5.71115e-29
3.41581e-29
-3.10524e-29
3.93821e-29
2.42194e-29
4.28337e-29
-1.61418e-28
6.00069e-29
1.16565e-29
2.3271e-29
0
0
0
0
-0
-1.83393e-29
0
0
-1.32994e-30
-0
0
0
0
0
6.95186e-30
0
0
0
0
4.24685e-30
1.6556e-29
-2.05786e-30
3.12789e-29
-1.8727e-29
1.75258e-29
-1.92414e-29
0
-3.0865e-30
1.84401e-30
4.0707e-30
-1.81798e-29
-2.62442e-29
6.47229e-31
4.7737e-30
0
-5.38454e-29
-8.83475e-29
-1.78895e-29
-2.91488e-30
3.92138e-31
1.22707e-30
0
0
1.31017e-29
2.21705e-30
-0
7.64182e-29
0
0
9.61212e-31
0
0
0
0
-0
0
0
0
0
0
0
0
-3.37874e-29
0
-0
0
-0
-2.31759e-30
0
0
0
-0
3.92773e-29
0
0
-0
0
1.58584e-29
-0
0
0
0
0
0
-0
-0
0
0
-0
0
0
0
0
-0
-0
0
-0
-0
0
0
-0
0
0
-0
-0
0
0
0
0
0
0
-0
-0
0
0
0
-0
0
0
0
0
0
0
0
0
4.22541e-29
1.04768e-29
0
0
-1.58905e-29
0
-4.81797e-29
0
-5.94297e-29
0
0
-6.24776e-31
0
-2.58166e-30
0
-0
0
0
0
0
0
0
0
0
0
0
0
0
0
0
0
0
-0
0
0
0
0
0
0
0
0
0
0
0
0
0
-0
0
0
0
1.26008e-30
0
0
0
0
0
0
0
-4.73947e-30
-0
-0
-3.7354e-32
0
9.60082e-31
0
-0
1.59158e-29
0
8.32825e-29
0
0
-3.09978e-30
0
1.23454e-29
0
0
-0
0
-0
6.7813e-30
0
6.09634e-30
0
-0
9.99959e-30
0
-0
-0
0
0
0
0
0
0
0
-0
0
0
0
0
0
0
0
0
0
0
0
0
0
0
-0
0
-0
0
0
0
0
0
-2.59164e-30
0
-1.44151e-29
3.65495e-29
0
-1.63315e-30
0
-0
0
0
0
0
0
0
0
0
0
0
0
0
0
0
0
0
0
0
0
-0
0
0
0
0
0
0
0
0
0
0
0
0
0
0
0
0
0
0
0
0
-0
0
0
-2.10523e-29
0
0
0
0
1.37775e-30
0
3.53256e-29
0
0
2.48121e-29
-0
0
0
0
-1.54252e-29
0
0
0
0
7.9351e-29
0
0
0
-0
-8.69298e-30
-0.0299526
-2.77068
-4.12802
-2.8066
-1.57448
-1.24812
1.02513
3.89338
5.4614
4.80585
3.5319
2.96755
2.99019
1.87704
0.409461
-0.349835
-0.709009
-1.79027
-2.97764
-1.63681
2.78625
4.51742
1.78513
-3.86872
-6.52514
-7.84705
-8.12238
-7.71821
-4.90566
-1.30807
0.605975
0.138374
-1.53748
-3.69182
-1.79055
5.70849
4.96463
1.77051
0.847629
0.970858
-6.01287
-6.68842
-4.00443
1.75079
6.62168
7.74097
6.17625
5.20533
3.82542
3.54386
3.84792
8.1648
13.8797
17.8941
21.8191
27.6288
32.1511
29.4928
15.7728
-3.91963
-10.2664
-2.67206
1.14971
-2.77359
-0.501214
0.279348
-6.03096
-11.9036
-6.03129
8.57714
19.5284
19.5163
12.5882
-1.16099
-10.5512
4.30135
17.5271
5.20837
-3.6941
-5.18503
-1.27761
-1.29807
-0.603502
0.504367
1.45081
1.8865
1.39622
0.494346
-0.509762
-0.711876
-0.533013
0.594834
2.18068
3.55441
4.95068
6.6886
8.22868
8.49232
5.75798
-0.985036
-6.46405
-5.41769
-2.26529
-0.528289
2.15196
3.50868
1.47081
-1.34364
-1.00383
2.42488
5.70013
6.35909
4.8563
1.43156
-2.54718
-2.22236
1.12399
0.990257
-0.303013
-0.892887
-0.000616837
-0.00244878
0.000730079
0.000299168
-0.00065031
-0.00276063
-0.00924183
-0.00332024
0.0119745
0.00167162
-0.00192934
0.0138264
0.0324798
0.0452544
0.0629614
0.0992135
0.151716
0.193092
0.170572
-0.196975
-0.721185
-0.461988
-0.137887
-0.0554586
0.0190107
0.103462
0.053349
-0.0778658
-0.0559136
0.0907697
0.190689
0.186994
0.120707
-0.00563981
-0.211369
-0.143201
0.100358
0.0531158
0.0138835
0.00644423
-0.0112246
-0.023304
-0.0167445
0.0140864
0.0314064
0.0263435
0.00601277
-0.00212074
0.030135
0.020605
-0.00630157
-0.00775899
0.00614886
0.0251739
0.0306299
0.020405
0.00730045
0.00337264
-0.000926217
0.0163176
0.091904
0.179448
0.0181506
0.00568863
0.0726804
0.0281078
-0.0105291
0.0148533
0.0386831
0.00594832
-0.0106373
-0.00268651
-0.00225794
-0.000357371
0.00519279
0.0373693
0.0348666
-0.000544757
0.00492698
-0.0026595
-0.0070743
-0.0185399
-0.0188739
0.00704478
0.0182289
0.0123713
0.00522544
-0.000773086
0.0134251
0.0174568
-0.0140204
-0.0143531
0.00208567
0.0191337
0.0243533
0.0164863
0.00493851
0.00206573
-0.00120397
-2.13611e-05
0.0673919
0.165228
0.00286671
-0.0187748
0.0840041
0.0477245
0.00457989
0.00126007
0.00921322
0.00384691
-0.00175931
0.00457234
0.00365765
3.66304e-05
-0.00371105
0.0108528
0.0175452
-0.00355514
0.0107711
0.00392128
-0.000916722
-0.00504545
-0.00734005
0.00059095
0.00423259
0.00219119
0.000744838
1.7861e-05
0.00244298
0.0100574
-0.0020863
-0.0101656
-0.00233815
0.00459437
0.00624835
0.00351238
0.000545281
-0.000529391
-0.000103632
-0.00195038
0.00848445
0.0679354
0.0163025
-0.0154022
0.0298
0.0102403
0.000342611
4.03108e-05
0.000135621
0.000167622
-0.000361957
-0.000176212
-4.73162e-05
-0.000222907
-0.00108943
0.000553361
0.00866428
-0.000518937
0.00300259
0.00422674
0.000212806
-0.000748769
-0.00139472
-0.000118838
0.000579244
0.000238227
5.97224e-05
3.87248e-05
0.000109273
0.00224691
0.00158662
-0.00318992
-0.00207283
0.000800292
0.00129763
0.000476969
5.24306e-05
-0.000322851
0.000213085
-6.52046e-05
-0.000245653
0.0168429
0.00944678
-0.00577796
0.00658471
0.00110711
-6.9708e-05
1.41469e-05
-1.29132e-06
-1.59739e-07
-1.70549e-06
-1.0142e-06
9.37921e-06
0.000138981
-0.000132754
-2.07212e-05
0.00117437
0.000954272
-2.96193e-05
0.00110531
6.30775e-05
-6.66898e-05
-0.000164974
-2.02444e-05
5.37245e-05
2.18507e-05
6.08648e-06
9.22487e-06
-6.29787e-06
0.000253376
0.000562046
-0.000407794
-0.000593785
0.000205531
0.000319326
8.31463e-05
-7.76079e-06
-4.8003e-05
-1.03369e-05
0.000110802
-0.000126211
0.00406252
0.00296131
-0.00144875
0.0013834
0.000181761
-1.16528e-05
-2.007e-06
1.8123e-07
2.55852e-09
-4.04464e-09
-1.05407e-07
-1.51577e-07
3.35134e-06
3.11138e-06
1.34525e-05
1.83004e-05
0.000202376
-2.34438e-05
9.67836e-05
1.00049e-06
-5.05731e-06
-9.50984e-06
3.87626e-06
7.41556e-06
2.14946e-06
2.37556e-07
-1.53252e-07
1.78571e-06
1.06514e-05
8.6324e-05
-3.61886e-05
-7.45618e-05
6.01436e-05
5.90677e-05
1.49059e-05
-5.52216e-06
2.45192e-06
-1.56834e-05
2.45703e-05
-1.0437e-05
0.000898649
0.000645658
-0.000260992
0.000282893
3.6073e-05
1.4084e-07
-2.84739e-07
-7.32729e-09
9.22365e-12
-1.02579e-09
-4.15128e-09
-1.55125e-08
1.48042e-08
6.77636e-07
6.69409e-08
4.33485e-08
1.1181e-05
4.09487e-06
5.08799e-07
-7.87049e-07
-8.55894e-07
4.45254e-07
1.26771e-06
6.99393e-07
9.74279e-08
5.26416e-09
-1.61631e-08
3.93983e-07
-3.46516e-07
6.34268e-06
-1.17433e-06
-6.28794e-06
7.05436e-06
4.99439e-06
1.20652e-06
-5.42882e-07
4.11146e-08
-1.49948e-06
1.6718e-06
3.49226e-06
0.000117947
9.49161e-05
-3.03364e-05
4.32977e-05
6.12907e-06
3.31155e-07
8.68022e-11
-6.66027e-11
0
0
-7.78452e-11
3.14178e-12
1.45039e-09
2.73251e-09
-2.05256e-09
3.35643e-07
2.70881e-08
6.22869e-07
1.2562e-08
-1.67999e-08
-3.0348e-07
2.07398e-07
8.99092e-08
1.64888e-08
1.0944e-09
4.41906e-11
-5.28466e-10
3.18265e-09
-5.82939e-09
3.69375e-07
7.98908e-08
-2.28333e-07
4.64918e-07
3.52153e-07
9.211e-09
2.20379e-09
-8.65908e-09
-1.4471e-07
7.15271e-09
3.79544e-07
7.13898e-06
7.91904e-06
-2.43542e-06
4.55325e-06
7.80923e-07
5.1542e-09
0
0
0
0
0
0
0
-0
3.10619e-10
-1.74886e-11
-2.42793e-10
3.26132e-09
1.67768e-08
-3.40135e-09
-3.54705e-09
2.8572e-09
6.16087e-10
0
0
0
0
2.69662e-11
7.59123e-11
2.40869e-11
-3.86784e-09
-1.23015e-08
2.96747e-09
2.42407e-10
1.0832e-10
0
-3.07176e-10
2.24135e-11
-2.46996e-10
-4.71171e-09
4.51968e-07
1.22307e-07
-6.23487e-08
3.93312e-07
7.94958e-09
0
0
0
0
0
0
0
-0
0
-0
0
0
0
-2.01162e-10
0
0
0
0
0
0
0
0
-0
0
0
0
0
0
0
0
0
0
0
0
3.55389e-10
4.71192e-10
-5.32919e-09
-2.16962e-09
9.99716e-10
0
0
0
0
0
0
0
0
0
-0
0
0
0
0
0
0
0
0
0
0
0
0
0
0
0
0
0
0
0
0
0
0
0
0
0
0
0
0
0
0
0
0
0
0
0
0
0
-0
-0
0
-0
0
-0
0
0
0
0
0
0
0
0
-0
0
0
0
0
0
0
0
0
0
0
0
0
0
0
0
0
0
0
0
0
0
0
0
-0
0
0
0
0
0
-0
-0
0
0
9.35235e-30
0
0
0
-0
-0
-0
0
0
0
0
0
0
0
0
0
0
0
0
0
0
0
0
0
0
0
0
0
0
0
-0
0
-0
0
-0
0
0
-0
0
0
1.43847e-29
-0
0
-0
0
0
0
0
0
0
0
0
0
0
0
0
0
0
0
0
0
0
0
0
0
0
0
0
0
0
-0
-0
0
0
0
-0
0
-0
-0
0
0
0
-0
0
0
0
-0
0
0
0
0
0
0
-0
0
-0
0
0
0
0
0
0
0
0
0
0
0
-0
0
-0
0
0
0
0
0
0
0
0
-0
-0
0
0
-0
0
0
-0
-0
0
0
-0
0
-0
0
0
-0
0
0
0
0
-0
-0
0
0
0
-0
0
0
0
0
0
0
-0
0
0
0
-0
-0
-0
0
-0
0
0
-0
0
0
0
-0
0
0
0
0
0
0
0
0
-0
0
0
0
0
-0
0
0
-0
-0
0
0
0
0
0
0
0
0
0
0
0
0
0
0
0
1.11612e-30
0
0
0
0
0
0
0
0
0
0
0
0
0
0
0
-0
0
0
0
0
0
0
0
-0
0
0
0
0
0
0
0
0
0
0
0
0
0
0
0
0
0
0
0
0
0
0
0
0
-0
0
0
0
0
0
0
0
0
-0
-0
-0
0
0
0
0
0
0
0
0
0
0
0
0
0
0
0
0
0
0
0
3.06375e-30
0
0
0
0
0
0
0
0
0
0
0
0
0
0
0
0
0
0
0
0
0
0
0
0
0
0
0
0
0
0
0
0
0
0
-0
0
0
0
0
0
0
0
0
0
0
0
0
0
0
0
0
0
0
0
0
0
0
0
0
0
0
0
0
-0
0
-0
0
0
0
0
0
0
0
0
0
0
0
0
0
-0.151352
-4.43234
-2.67905
0.741119
2.40757
1.97783
1.05246
-0.318055
0.100828
2.18662
3.41899
3.03224
1.47639
0.328556
0.780891
0.860387
0.777967
0.656643
0.474799
-1.38813
-2.94882
-0.634234
0.0734256
-3.9807
-7.75741
-8.61952
-7.16
-4.7464
-1.57479
1.2352
2.70638
1.77202
-0.446049
-2.2957
-1.54083
1.4892
1.91946
3.02383
6.78885
6.35654
-13.0411
-13.8467
-3.21034
5.56498
7.42328
5.21744
2.33999
-1.90342
-3.27874
0.870039
6.86642
9.91824
10.4988
11.3416
16.5618
21.6583
25.2945
28.3489
28.7658
13.484
-14.7143
-19.1016
-8.24792
-13.075
-22.432
-25.0384
-19.5587
-9.07941
4.66707
16.6247
21.7655
17.6453
8.16607
-0.999921
-3.60251
5.79751
14.0488
10.9788
5.7947
-2.65527
-2.3864
-2.81602
-0.976358
0.609033
0.896869
0.574584
0.245168
-0.342713
-0.932024
-0.753529
0.192556
1.31326
2.26708
3.34694
4.97099
6.35844
7.13543
7.81247
8.38403
5.19457
-3.26834
-7.14512
-4.02973
-2.72042
-4.3662
-5.39092
-4.44223
-1.87934
1.81968
5.23968
6.88399
5.96885
3.26119
0.382181
-1.38678
-0.682294
1.2821
1.70622
0.713857
-0.905626
0.0763006
0.0370532
0.0157159
-0.00145558
-0.02544
-0.0377246
-0.0177354
0.00848149
0.00286863
-0.0115242
0.00143643
0.0358373
0.0695689
0.111879
0.16491
0.199206
0.209196
0.217367
0.23373
0.0923567
-0.300099
-0.369269
-0.0743817
-0.0790333
-0.279657
-0.448597
-0.355122
-0.0653909
0.191888
0.316958
0.348135
0.283977
0.132167
-0.0205006
-0.122938
-0.0792491
0.0433329
0.0501974
0.0273036
0.0820547
0.0489873
-0.0640434
-0.0521703
0.023061
0.0551281
0.0446387
0.0164769
0.000692876
-0.00159302
-0.000556689
-0.00140477
0.00118239
0.00915775
0.0117319
0.0109402
0.00994195
0.00593953
0.00337241
0.00262651
-0.0170117
0.0105139
0.247143
0.152511
-0.00314839
0.0250155
-0.00320482
-0.0262132
-0.00143885
0.00163742
0.00132453
0.00412997
-0.00139681
-0.00389259
0.0106277
0.01923
0.0124498
0.00226866
0.000754582
-0.00281398
0.0327702
0.0276349
-0.0613183
-0.0698175
0.0133972
0.0516225
0.049095
0.0248825
0.00447414
-0.00291015
-0.00428762
-0.00660174
-0.000829823
0.0160633
0.0244832
0.0226171
0.0166054
0.00796076
0.00185964
0.00165381
0.00150481
0.00175703
0.140869
0.100661
-0.0409177
0.0319809
0.0495497
0.0118354
0.000509716
-0.000380212
0.00814833
0.0122816
0.00637123
0.000430242
0.00149314
0.00619646
0.00418784
-0.00306898
0.00229547
0.00359998
0.00406867
0.0088922
-0.0202915
-0.0368331
-0.000109763
0.0192472
0.020501
0.0119206
0.0034431
1.33092e-05
-0.000721222
-0.00157949
-0.000199957
0.00780375
0.0123387
0.00957262
0.00473301
0.00157128
0.000131197
-4.43128e-05
-0.000640088
3.48163e-05
0.0235562
0.0511443
-0.0152304
0.00622041
0.0244917
0.00846236
0.00104453
-4.67479e-05
0.000928017
0.00094896
0.000355318
2.11888e-05
0.000159534
0.00108731
0.00245591
-0.000100493
-0.000385933
0.00169862
6.31398e-05
0.0016608
-0.00398193
-0.0108702
-0.00184861
0.00405365
0.00501466
0.00338431
0.00128367
0.000381444
0.00020433
0.000172026
0.000496149
0.00210394
0.00308068
0.00200284
0.000779902
0.000243413
2.83381e-05
-2.06652e-05
1.56977e-05
0.000156571
0.000687216
0.0105172
-0.000806911
-0.000336538
0.00525283
0.00213527
0.000332883
1.64286e-05
1.89474e-05
7.22729e-06
3.34731e-08
-1.82053e-06
1.25032e-06
1.82489e-05
0.000246889
0.000376106
-0.000156678
0.000160775
-1.20601e-05
0.000241749
-0.000615581
-0.00205993
-0.000582579
0.000595193
0.000767338
0.000522941
0.000193066
8.3916e-05
7.28279e-05
0.000114778
0.000199941
0.000337747
0.000322555
0.000137578
4.76807e-05
2.4878e-05
5.31377e-06
1.23481e-06
1.7398e-06
2.45835e-05
-2.46382e-05
0.00129334
9.21723e-05
-0.000282614
0.000667745
0.000307312
4.72024e-05
-1.43639e-06
-3.29808e-06
-1.79305e-07
1.69326e-08
2.84347e-08
-6.51642e-08
1.41958e-07
3.75269e-07
2.56678e-05
-8.05953e-06
1.42459e-06
2.11161e-05
3.23318e-05
-7.79076e-05
-0.00022175
-5.66132e-05
7.68968e-05
7.56017e-05
3.95357e-05
7.96432e-06
3.95689e-06
5.48247e-06
7.73468e-06
2.31759e-05
2.69146e-05
1.06879e-05
1.40218e-06
1.89542e-07
1.15301e-06
7.66727e-07
2.24644e-07
1.95204e-07
3.14623e-06
-3.65526e-06
0.000152559
1.27127e-05
-5.1819e-05
6.33468e-05
3.25502e-05
5.05205e-06
-5.6867e-07
-3.78713e-07
-4.51322e-08
-4.04165e-09
2.07563e-09
2.36364e-09
6.09388e-09
-2.61622e-09
2.2329e-07
-4.2132e-07
-3.54421e-08
9.43658e-06
3.78734e-06
-5.0438e-06
-7.00232e-06
3.54721e-06
9.97579e-06
6.35184e-06
2.96272e-06
2.60807e-07
-2.81161e-07
-6.05832e-08
1.38202e-07
1.06599e-06
1.6611e-06
8.72998e-08
2.10935e-10
-6.61067e-10
3.53143e-09
1.0358e-09
1.36611e-09
-5.49733e-09
5.12695e-07
-2.56723e-07
1.45014e-05
-2.57549e-06
-5.21474e-06
6.13383e-06
2.68823e-06
5.28404e-07
7.90742e-08
5.88424e-09
2.85578e-12
0
0
0
-9.08531e-10
-5.32738e-11
2.59036e-09
-1.25296e-08
1.48646e-08
1.2456e-06
7.3511e-07
-1.8361e-07
9.10609e-07
6.74132e-07
6.25633e-07
2.5798e-07
3.25988e-07
9.47094e-09
-7.07868e-09
-3.32443e-09
-1.4598e-09
2.21015e-09
9.85226e-09
1.68426e-09
-4.76772e-11
-3.82833e-11
0
3.16412e-11
0
1.329e-10
1.99094e-08
-2.22164e-08
1.45818e-06
-1.11999e-07
-5.84661e-08
4.55297e-07
3.75411e-07
1.68117e-08
4.20275e-10
0
0
0
0
-0
0
1.70252e-10
-3.701e-12
-3.44651e-11
9.80777e-10
2.99682e-08
8.2985e-09
-2.60614e-09
6.96352e-08
1.53634e-08
5.18108e-09
2.7372e-09
3.3142e-10
4.82554e-11
-2.24925e-12
0
-0
0
0
0
0
0
0
0
0
0
3.60617e-11
-2.12641e-09
2.82896e-08
-5.24338e-09
1.31023e-08
1.13125e-08
8.41051e-10
0
0
0
0
0
0
0
-0
0
-0
0
0
4.90099e-10
-1.86197e-10
-2.29036e-10
4.80171e-10
0
0
0
0
0
0
0
0
0
0
0
0
0
0
0
0
0
0
0
-7.86569e-11
-6.42005e-10
7.65882e-11
0
0
0
0
0
0
0
0
0
0
-0
-0
0
0
0
0
0
0
0
0
0
0
0
0
0
0
0
0
0
0
0
0
0
0
0
0
0
0
0
0
0
0
0
0
0
0
0
-0
0
0
0
-0
0
0
0
0
0
0
0
0
0
0
0
0
0
0
0
0
0
0
0
0
0
0
0
0
0
0
0
0
0
0
0
0
0
0
0
0
0
0
0
-0
0
-0
0
-1.44704e-28
0
0
0
0
0
-0
0
0
0
0
0
0
-0
-0
0
0
0
0
0
0
0
0
0
0
0
0
0
0
-0
0
0
0
0
0
0
0
-0
-0
0
0
0
0
0
-0
0
-0
-0
0
0
0
0
0
-0
0
0
-0
0
-0
-0
0
0
0
0
0
0
0
0
0
0
-0
0
0
0
0
0
-0
-0
0
-0
-1.53791e-29
0
0
0
0
0
0
0
0
-0
0
0
0
-0
0
0
0
0
0
0
-0
0
0
0
0
-0
0
0
0
0
-0
0
0
0
0
0
0
-0
-0
0
0
0
0
0
0
0
0
0
0
-0
0
0
0
-0
0
-0
0
0
0
0
-0
0
0
0
0
-0
0
0
0
0
0
0
0
0
0
0
0
-0
0
0
0
0
-0
0
0
0
0
0
0
0
0
0
0
0
0
0
-0
0
0
0
0
0
0
-0
0
0
0
0
0
0
0
0
0
0
0
0
0
0
0
0
0
-0
0
0
0
-0
0
0
0
0
0
0
0
0
0
-0
-0
0
0
0
0
0
0
0
0
0
0
0
0
0
0
0
0
0
0
0
0
0
0
0
0
0
0
0
0
0
0
0
0
0
0
0
0
0
0
0
0
-0
0
0
0
0
0
0
0
0
0
0
0
0
0
0
0
0
0
0
0
0
0
0
1.72587e-30
0
0
0
0
0
0
0
0
0
0
0
0
0
0
0
0
0
0
0
0
-0
0
-0
-0
-0
0
0
0
0
0
0
0
0
0
0
0
0
0
0
-7.73639e-29
0
0
0
0
0
0
0
0
0
0
0
0
0
0
0
0
-0
0
0
0
0
0
0
0
0
0
0
0
0
0
0
0
0
0
0
0
0
0
0
-9.68956
-11.7964
-6.82148
-0.937366
0.795911
-0.268563
-1.19949
-1.1844
-0.936952
-0.0350105
0.986682
2.66764
2.95364
1.03461
-1.60443
-3.65082
-4.91073
-6.16847
-6.5729
-4.63349
-1.42531
0.920976
3.846
-1.31365
-2.77742
-3.26084
-1.70865
1.61083
3.99973
3.82652
0.860742
-3.23081
-5.60253
-4.86319
-3.57977
-1.57804
-1.23086
-0.836778
-0.0129601
-4.38317
-37.7163
-36.6027
-19.8581
-5.7468
-3.81461
-6.81512
-6.88645
-3.2184
0.502973
2.04831
1.99268
3.23836
3.84089
2.04772
-0.035549
0.282005
1.91753
3.16532
3.62075
2.34317
-4.97017
-15.9094
-12.0545
-6.84841
-9.71131
-12.0818
-6.72081
4.60915
14.9518
17.1868
10.2558
-2.59058
-12.0651
-13.024
-7.45693
0.983384
6.78667
4.14948
-5.06737
-21.4695
-8.28242
-8.56937
-4.80898
-1.91747
-1.87304
-2.46435
-2.09925
-0.892598
0.312713
0.734864
0.456074
0.277209
0.433301
0.600601
0.922512
1.67203
2.43573
3.07671
3.55283
3.00687
-0.317013
-5.52777
-6.37375
-3.19131
-2.45058
-3.01636
-2.28313
0.209188
2.97363
4.33318
3.47483
0.833073
-1.66174
-2.57477
-1.97132
-0.419448
1.33976
1.79892
0.276954
-3.34058
-0.273949
-0.437118
-0.296633
-0.0886251
-0.02797
-0.0441159
-0.028289
0.0138374
0.0402012
0.0340403
0.00531529
-0.0249902
-0.0356411
-0.0120662
0.0146825
0.0345811
0.0483693
0.0787587
0.123275
0.0982907
-0.126768
-0.320002
-0.179561
0.0131764
-0.00719854
-0.0750901
-0.0871249
0.0115798
0.138259
0.211708
0.197259
0.0799061
-0.0523566
-0.110372
-0.0985956
-0.0286477
0.0404714
0.0384929
-0.00822046
-0.0697999
0.0522946
0.0159699
-0.00957936
-0.00895189
0.0190415
0.0122307
-0.00430902
-0.00262958
0.00608092
0.00953316
7.4142e-05
-0.00558827
-0.00540787
0.00207279
0.0160533
0.0268028
0.0236895
0.00913766
0.00461586
0.00158059
-0.0184255
0.157558
0.376018
0.1296
0.00452998
-0.00285435
0.000862716
0.00681647
0.00964483
0.00424037
5.94564e-05
0.000376302
0.0047942
0.00830259
0.00369246
0.000499451
3.03789e-05
0.000383445
-0.00909672
0.00321582
0.00317402
-0.00490969
0.00066457
-0.00117938
0.00510572
-0.0154355
-0.0264875
-0.00359628
0.0169861
0.0239396
0.0143435
0.00265468
0.000767319
0.00513973
0.0188744
0.0282531
0.0225737
0.00963249
0.00209864
0.000163591
0.00036971
0.0387314
0.287579
0.0982559
-0.0289248
-0.00785294
0.0031
0.0212378
0.0325531
0.0207582
0.00483116
-5.2849e-05
-0.000187502
0.000582711
-0.00155748
-0.00250682
0.00270227
0.0106877
0.0113715
0.00102045
-0.00040216
-0.00125262
0.000534714
-0.00137307
0.00639621
-0.00449187
-0.0167055
-0.00198189
0.0107886
0.011566
0.00735548
0.00169833
7.79074e-05
1.92968e-05
0.0026372
0.00531952
0.00424079
0.00198132
5.64115e-05
3.82584e-05
-0.00279929
4.57777e-06
0.0681228
0.08105
-0.0189242
-0.00427016
0.00851876
0.0172322
0.0195028
0.010238
0.00168882
-0.000490659
-0.000319873
-1.14211e-05
3.09403e-05
-0.000530264
0.000261566
0.0029881
0.0038351
0.00184039
0.000185767
0.000643493
0.000454783
-0.000880182
0.00259675
0.00146489
-0.00492575
-0.00104573
0.00341984
0.00300163
0.00137982
0.000241911
-6.5339e-05
-9.81524e-05
-0.000459299
0.000195827
0.000443852
0.000234598
6.48428e-05
-7.03979e-05
-5.66149e-05
0.000314708
0.0031614
0.0232136
-0.00219968
-0.00320976
0.00490588
0.00821274
0.00708038
0.00303131
0.000514083
-8.19116e-05
-8.62832e-05
-3.24498e-05
2.03043e-05
2.4421e-07
6.54288e-06
0.000295923
0.000398939
0.000237228
1.48305e-05
0.000163882
0.000187646
-0.000151675
0.000232779
0.000575473
-0.00077209
-0.000465915
0.000304928
0.000381888
0.00012872
1.87383e-05
-1.25967e-06
8.34231e-05
-8.99487e-05
-6.37614e-05
3.65458e-05
2.74956e-05
3.99632e-06
-1.82288e-10
-1.04222e-06
2.12804e-05
-7.64918e-06
0.00277748
0.00021983
-0.001038
0.00136676
0.00230806
0.00163439
0.00055392
0.000101263
-3.5123e-06
-1.15113e-05
-5.93884e-06
-5.20343e-07
8.01053e-07
-9.90687e-07
1.39886e-05
1.27538e-05
3.58468e-06
4.07769e-08
1.38783e-05
2.01411e-05
-9.89875e-07
3.45332e-06
6.86902e-05
-5.6456e-05
-9.62646e-05
1.53949e-05
3.19673e-05
8.1257e-06
-1.3976e-07
6.47125e-07
1.22589e-05
7.16728e-06
-1.08038e-05
6.16792e-07
2.69554e-06
5.27096e-07
-1.00535e-08
-7.1624e-08
1.66334e-06
-5.23121e-06
0.000219082
4.87175e-05
-0.000144092
0.000226132
0.000330173
0.000182848
5.43654e-05
8.84019e-06
4.3926e-07
-1.02302e-07
-1.21665e-07
-8.98626e-08
3.27455e-08
-5.60416e-08
1.87647e-07
1.40078e-08
6.69176e-08
-2.79802e-09
9.3098e-07
1.56991e-06
5.38528e-08
4.10259e-08
2.79919e-06
-2.13404e-06
-4.05544e-06
1.08436e-06
7.64397e-07
7.42242e-08
6.72693e-09
-8.54356e-10
3.96306e-07
2.94865e-07
-7.1331e-07
-2.53019e-07
5.23597e-08
1.29032e-08
2.3103e-09
-2.62392e-09
2.13209e-07
-3.12849e-07
1.37683e-05
-1.65955e-06
-5.64156e-06
2.72852e-05
2.72924e-05
1.14394e-05
1.67196e-06
6.32944e-08
-1.58823e-09
3.7964e-09
2.71807e-09
3.02417e-10
1.81079e-10
-1.54834e-09
3.16236e-10
7.93411e-10
1.75921e-08
9.84727e-11
2.36703e-08
2.82967e-08
5.20355e-10
-6.98586e-10
7.25061e-09
-8.24742e-09
-1.21295e-08
6.80235e-09
5.19289e-10
-2.64699e-11
0
9.65878e-11
0
1.06886e-09
-9.89196e-10
-6.48152e-10
6.45367e-11
0
0
-1.12598e-10
1.86484e-09
-3.59641e-09
6.31788e-07
-7.49654e-09
4.76451e-07
1.85435e-06
1.53702e-06
1.34615e-07
1.15309e-09
0
0
-0
-0
-0
-0
0
0
3.8424e-12
7.59053e-10
3.63647e-12
5.9314e-10
1.02462e-10
0
-0
-6.43188e-12
-3.17332e-11
3.71568e-12
0
0
0
0
0
0
0
0
-0
0
0
0
0
0
1.58555e-10
1.58011e-09
-2.50585e-09
1.8405e-08
2.48153e-08
4.66427e-09
0
0
0
0
0
0
0
0
-0
0
0
0
0
0
0
0
0
-0
0
0
0
0
0
0
0
0
0
0
0
0
0
0
0
0
0
0
-7.0219e-11
6.39212e-11
0
0
0
0
0
0
0
0
-0
-0
-0
0
0
-0
0
0
0
0
0
0
0
0
-0
-0
0
0
0
0
0
-0
-0
0
0
0
0
0
0
0
0
0
0
0
0
0
0
0
0
0
0
-0
-0
0
0
-0
-5.17028e-28
0
0
0
0
0
0
0
-0
0
-0
0
0
0
-0
0
-0
-0
0
0
0
0
0
0
0
0
0
0
0
0
0
0
0
0
0
0
0
0
0
0
0
0
0
-0
0
0
0
0
0
-0
0
0
0
0
0
0
0
-0
0
0
0
0
0
0
0
0
0
0
0
0
0
0
0
0
0
0
0
0
-0
0
0
0
0
0
0
0
0
0
0
0
-0
-0
-0
0
0
0
0
0
0
0
0
0
0
0
0
0
0
0
-0
0
0
0
0
0
0
0
0
-0
0
-0
0
0
0
0
0
-0
0
0
0
0
0
-0
0
0
0
0
-0
-0
0
0
0
0
0
0
0
0
0
0
-0
0
0
0
0
0
0
0
0
0
0
0
0
0
0
0
-0
0
0
0
0
0
0
0
0
-0
-0
-0
0
0
0
-0
0
0
0
0
0
0
0
0
0
-0
0
0
0
0
0
0
0
0
0
0
0
0
0
0
0
0
0
0
0
0
0
0
0
0
0
-0
0
0
0
0
-0
0
-0
-0
0
0
0
0
0
0
-0
0
0
0
0
0
0
0
0
0
0
0
0
0
0
0
0
0
0
0
0
0
0
0
-0
0
0
0
0
0
0
0
0
0
0
0
0
0
0
0
0
0
0
0
0
0
0
0
0
0
0
0
0
0
0
0
0
0
0
0
-0
0
0
0
0
0
0
0
0
0
0
0
0
-0
0
0
0
0
0
0
0
0
0
0
0
0
0
0
0
0
0
0
0
0
-0
0
0
0
0
0
0
0
0
0
0
0
0
0
0
0
0
-0
0
0
0
-0
-0
0
0
0
0
-0
0
0
0
0
0
0
0
0
0
0
-0
0
0
0
0
0
0
0
0
-0
0
0
0
0
0
0
0
0
0
-0
0
0
0
-0
0
0
0
0
0
0
0
0
0
0
0
-0
0
0
-7.98998
-9.20799
-6.19342
-2.88141
-2.30643
-3.77857
-3.29457
-1.884
-0.86736
0.0128402
1.2936
0.366934
0.119214
0.614742
0.186299
-3.18409
-6.82512
-9.44141
-10.0767
-6.83824
-0.130767
3.1274
1.77336
1.64663
3.10684
1.30702
-1.2632
-1.48719
0.326951
1.13281
-0.75329
-3.65207
-5.28472
-4.81741
-3.09413
-1.24512
-0.482012
-0.22113
-0.685964
-4.27718
-10.9844
-10.6711
-3.49585
0.528796
-4.25098
-12.4658
-15.818
-11.5583
-4.93036
-1.49108
-1.62747
-4.4376
-5.38733
-3.32578
-4.33678
-10.2295
-17.3695
-22.8032
-26.1974
-22.8461
-9.41851
1.24735
1.06563
3.36568
10.4099
5.90907
-4.00719
-6.31495
-1.05809
1.86074
-2.95137
-11.0197
-14.5441
-11.092
-4.40651
1.53853
4.96798
4.68097
2.65874
-3.95478
-0.3856
-0.166149
1.33102
1.44595
-0.700002
-2.93571
-3.84355
-3.27694
-1.88831
-0.972914
-0.931155
-1.47083
-1.64971
-0.862343
-0.452476
-1.17607
-2.45975
-3.5498
-4.81012
-5.41277
-3.75769
-1.76545
-1.51975
-0.853686
1.16805
1.14436
-0.530577
-1.29851
-0.389346
0.674784
0.274701
-1.30716
-2.33969
-1.90765
-0.708956
0.469621
1.52963
1.94964
1.82813
0.922706
-0.0863299
-0.127171
-0.0607977
-0.0190302
-0.106128
-0.195572
-0.192528
-0.13437
-0.0548163
-0.00496187
0.00889115
-0.00826095
-0.0284359
-0.00553516
0.0228766
-0.0228973
-0.12511
-0.215257
-0.336825
-0.472758
-0.334761
-0.0501485
-0.0687892
-0.0787083
0.0395645
0.100086
0.0564365
-0.00734312
-0.000601191
0.0586398
0.0700764
0.00671946
-0.0649866
-0.0737925
-0.0295502
0.0189834
0.0421507
0.0351241
0.0218177
-0.0122832
0.0183782
0.0240108
0.000814534
-0.0160566
0.0201423
0.0557434
0.0435412
0.0254175
0.0148502
0.00615446
0.00324771
0.00540918
0.0043818
0.000485694
0.00175561
0.0124821
0.0313166
0.0375254
0.0129155
-0.0578141
-0.0289284
0.14567
0.0491536
0.00172569
0.00762425
-0.00253968
-0.00384117
-0.000666228
0.00371997
0.000542372
-0.0010969
-0.00275681
-0.00134461
-0.000159479
6.49869e-07
-0.000998482
-0.00241282
-0.00154215
0.00189961
0.00745958
0.016088
0.0178922
0.0124772
0.00110781
0.00498275
0.023983
0.0236956
0.0127776
0.00431873
-0.00292681
-0.00556802
-0.00864666
-0.00936369
-0.00203842
0.00924886
0.0221901
0.0407927
0.0478145
0.0417991
0.0136645
-0.0406661
0.0949711
0.0719388
-0.0233701
0.023534
0.00858804
-0.00611986
0.00213279
0.0224391
0.0162253
0.000101012
-0.00834754