/*--------------------------------*- C++ -*----------------------------------*\
| =========                 |                                                 |
| \\      /  F ield         | OpenFOAM: The Open Source CFD Toolbox           |
|  \\    /   O peration     | Version:  5.0                                   |
|   \\  /    A nd           | Web:      www.OpenFOAM.org                      |
|    \\/     M anipulation  |                                                 |
\*---------------------------------------------------------------------------*/
FoamFile
{
    version     2.0;
    format      ascii;
    class       volVectorField;
    location    "50.4676134421789371";
    object      PU;
}
// * * * * * * * * * * * * * * * * * * * * * * * * * * * * * * * * * * * * * //

dimensions      [0 3 -3 0 0 0 0];

internalField   nonuniform List<vector> 
60000
(
(-0 -0 -0)
(6.97047e-10 -7.3177e-11 -1.25114e-09)
(-2.60626e-09 1.14834e-10 1.52513e-09)
(-1.0283e-08 1.70712e-10 1.16854e-09)
(-9.83454e-09 -4.8039e-11 -5.78766e-09)
(-9.74685e-10 -3.93648e-11 -1.15288e-08)
(3.52969e-09 -7.31774e-11 -9.76205e-09)
(5.41314e-09 -4.50622e-11 -5.24115e-09)
(8.08914e-09 3.15279e-12 -4.94052e-10)
(9.41428e-09 -3.32701e-11 3.8686e-09)
(5.29995e-09 6.78676e-11 4.09047e-09)
(2.58135e-09 1.16594e-10 3.21762e-09)
(1.42856e-09 9.77754e-11 2.26311e-09)
(1.69085e-09 9.04236e-11 9.92795e-10)
(1.48324e-09 9.28094e-11 -2.66425e-10)
(9.55369e-10 8.9316e-11 -1.08267e-09)
(1.76851e-09 4.4332e-11 -5.31264e-09)
(7.7747e-09 -4.90484e-10 -2.07343e-08)
(2.36851e-08 -1.35111e-09 -3.63024e-08)
(4.18047e-08 -1.26428e-09 -3.51667e-08)
(3.36963e-08 -5.8673e-10 -1.22828e-08)
(-1.17101e-08 5.9872e-11 6.13437e-10)
(-7.09103e-08 -2.67113e-10 -1.03625e-08)
(-5.13635e-08 -1.47349e-10 -1.30863e-08)
(5.46578e-09 -3.74885e-11 1.30596e-09)
(9.72795e-08 -1.18387e-09 1.78394e-08)
(1.18766e-07 -1.17492e-09 1.99916e-08)
(6.99658e-08 -2.85837e-10 1.54511e-08)
(2.97931e-08 1.15851e-10 9.64605e-09)
(1.57719e-08 2.55169e-10 4.05525e-09)
(1.45019e-08 3.16277e-10 -4.04701e-09)
(1.19399e-08 2.7158e-10 -6.36097e-09)
(4.12742e-09 9.44389e-11 -2.50686e-09)
(1.02651e-09 2.30455e-11 -8.66068e-10)
(1.93268e-09 5.26943e-11 -4.35505e-09)
(-2.23998e-09 -2.03452e-11 -1.39306e-08)
(-5.50571e-10 1.106e-10 -6.04123e-09)
(4.57385e-09 1.50446e-10 2.72212e-09)
(1.98257e-09 5.16256e-11 1.83711e-09)
(6.72991e-10 2.91543e-11 9.66938e-10)
(2.71628e-10 3.85899e-11 3.06669e-10)
(-2.88592e-10 -3.02265e-10 -1.64185e-09)
(-2.53551e-09 2.67028e-10 1.09844e-09)
(-1.43937e-08 -4.47854e-10 -2.86908e-09)
(-1.83889e-08 -1.86418e-09 -1.7038e-08)
(-3.80007e-09 -7.20662e-10 -2.83367e-08)
(7.66258e-09 1.1079e-10 -1.93771e-08)
(1.21773e-08 2.30354e-10 -4.59425e-09)
(1.89707e-08 -2.02031e-11 8.57142e-09)
(2.71896e-08 4.92777e-10 1.83201e-08)
(1.8499e-08 8.70188e-10 1.35614e-08)
(1.18654e-08 8.80879e-10 9.0248e-09)
(7.10788e-09 4.29916e-10 4.59617e-09)
(4.62712e-09 -1.63887e-10 -5.94647e-10)
(3.90539e-09 -1.84832e-10 -3.23375e-09)
(3.81517e-09 -1.53867e-10 -3.81732e-09)
(1.2967e-08 -8.13722e-10 -1.32402e-08)
(4.71553e-08 -3.28701e-09 -4.24201e-08)
(7.89281e-08 -2.38215e-09 -6.31184e-08)
(8.85506e-08 1.99202e-09 -5.25636e-08)
(5.66145e-08 2.19772e-09 -9.95932e-09)
(-1.86939e-08 -4.9399e-10 -4.1535e-09)
(-1.32435e-07 -1.00431e-09 -5.15999e-08)
(-1.11694e-07 2.3916e-09 -3.92566e-08)
(3.57296e-09 -1.56403e-10 7.92685e-10)
(2.12422e-07 -1.0361e-08 2.43315e-08)
(2.72494e-07 -9.87652e-09 1.79547e-08)
(1.75431e-07 -2.72933e-09 1.22885e-08)
(8.76044e-08 5.91174e-10 9.20502e-09)
(5.11791e-08 1.11846e-09 4.61076e-09)
(3.61775e-08 3.90857e-10 -6.69213e-09)
(2.70284e-08 8.81406e-11 -1.16062e-08)
(1.1521e-08 1.7841e-10 -5.19518e-09)
(4.95743e-09 1.31452e-10 -2.34364e-09)
(1.14908e-08 4.76429e-10 -7.73435e-09)
(1.14621e-08 5.53513e-10 -2.17486e-08)
(-2.99084e-09 -7.7424e-10 -9.19623e-09)
(6.61548e-09 -2.22948e-10 7.20895e-09)
(5.7803e-09 1.92655e-10 5.01158e-09)
(2.44061e-09 1.75556e-10 2.10698e-09)
(1.50014e-09 1.80061e-10 1.0625e-09)
(-2.438e-09 -5.89047e-10 -1.97894e-09)
(1.05056e-09 4.26904e-10 7.22867e-10)
(-2.43063e-09 -6.61106e-10 -3.51845e-09)
(-1.22226e-08 -3.66352e-09 -1.40059e-08)
(-1.17094e-08 -2.55547e-09 -2.7409e-08)
(4.29481e-10 -3.9406e-10 -2.47969e-08)
(8.50651e-09 5.74602e-10 -8.32225e-09)
(1.65905e-08 -2.73613e-10 8.59184e-09)
(2.95697e-08 4.38197e-10 2.35443e-08)
(2.21479e-08 1.20103e-09 1.73326e-08)
(1.61449e-08 1.64813e-09 1.19454e-08)
(1.00787e-08 1.22885e-09 6.51746e-09)
(5.08477e-09 3.93722e-11 1.52497e-10)
(3.65725e-09 -5.0626e-10 -3.31268e-09)
(4.3957e-09 -6.24999e-10 -3.87409e-09)
(1.60559e-08 -2.57222e-09 -1.31009e-08)
(4.83301e-08 -8.66867e-09 -3.97049e-08)
(6.05961e-08 -4.98574e-09 -5.80081e-08)
(5.41645e-08 8.63126e-09 -4.60957e-08)
(3.19274e-08 8.66713e-09 -3.56287e-09)
(-1.32811e-08 -1.97234e-09 -8.39543e-09)
(-1.05716e-07 -3.13258e-09 -8.45652e-08)
(-9.39568e-08 5.89221e-09 -5.82018e-08)
(-4.26692e-09 4.82093e-10 -1.46085e-09)
(1.59873e-07 -1.91379e-08 2.00003e-08)
(2.06283e-07 -1.79986e-08 1.77543e-09)
(1.35594e-07 -5.00057e-09 -3.79182e-09)
(6.94829e-08 1.30711e-09 -1.21574e-09)
(3.94794e-08 2.67201e-09 -5.43009e-10)
(2.25956e-08 1.26709e-09 -4.39193e-09)
(1.54837e-08 -3.03394e-10 -7.79552e-09)
(1.01144e-08 -6.87303e-11 -5.3336e-09)
(8.11221e-09 2.08285e-10 -3.92191e-09)
(1.20902e-08 7.15533e-10 -6.52191e-09)
(1.98087e-08 1.73755e-09 -1.73736e-08)
(1.27654e-09 -5.77173e-10 -1.16278e-08)
(1.27921e-09 -1.36615e-09 2.54838e-09)
(5.74427e-09 -2.8192e-10 4.53834e-09)
(4.44999e-09 1.8156e-10 3.0517e-09)
(2.46703e-09 5.04848e-10 2.68208e-09)
(-1.79855e-09 -9.57822e-10 -2.77815e-09)
(2.37221e-12 4.93349e-10 8.39218e-10)
(-5.23285e-09 -7.7251e-10 -3.61327e-09)
(-1.76458e-08 -4.85781e-09 -1.24169e-08)
(-2.76157e-08 -4.54534e-09 -2.25066e-08)
(-2.01166e-08 -1.57288e-09 -2.70403e-08)
(-6.21569e-09 7.1613e-10 -1.46258e-08)
(4.00659e-09 -1.13666e-10 3.5121e-09)
(1.78107e-08 -9.32995e-11 2.37005e-08)
(1.7723e-08 1.3998e-09 2.10588e-08)
(1.19807e-08 2.43892e-09 1.43287e-08)
(4.12676e-09 2.13179e-09 7.5593e-09)
(-2.48686e-09 4.40671e-10 2.6399e-10)
(-1.24189e-09 -7.89846e-10 -3.77444e-09)
(2.02157e-09 -9.79161e-10 -4.02377e-09)
(1.21878e-08 -4.01419e-09 -1.39548e-08)
(2.74338e-08 -1.22178e-08 -4.02512e-08)
(2.91254e-09 -6.53109e-09 -5.86857e-08)
(-2.10764e-08 1.62467e-08 -4.87373e-08)
(-5.81948e-09 1.61797e-08 -2.85357e-09)
(-4.83421e-09 -4.10276e-09 -1.16459e-08)
(-6.77736e-08 -5.09101e-09 -1.11494e-07)
(-6.39644e-08 1.02913e-08 -7.34656e-08)
(-7.78179e-09 2.11812e-09 -4.82124e-09)
(8.72192e-08 -2.46094e-08 1.46678e-08)
(1.05554e-07 -2.03053e-08 -1.29796e-08)
(6.4368e-08 -2.7513e-09 -1.80571e-08)
(2.61671e-08 4.81648e-09 -1.12799e-08)
(2.15566e-09 6.01717e-09 -7.27753e-09)
(-1.30675e-08 3.50995e-09 -6.5497e-09)
(-1.01917e-08 2.37353e-10 -6.54997e-09)
(-1.80361e-09 -2.28302e-10 -4.70522e-09)
(1.25142e-09 1.54422e-10 -3.86072e-09)
(3.81023e-09 1.03666e-09 -7.46019e-09)
(3.92782e-10 2.88261e-09 -1.72617e-08)
(-1.82125e-08 4.0966e-10 -1.30163e-08)
(-1.35888e-08 -2.05915e-09 -8.3734e-10)
(-5.02739e-10 -1.02079e-09 3.36014e-09)
(4.20876e-09 6.1415e-12 4.54366e-09)
(2.84611e-09 7.63821e-10 4.44395e-09)
(-1.72064e-09 -1.50972e-09 -4.57583e-09)
(-4.24113e-10 5.72742e-10 1.34977e-09)
(-1.08897e-08 -2.96388e-10 -8.92095e-10)
(-2.83366e-08 -5.56964e-09 -1.12008e-08)
(-4.28457e-08 -5.65915e-09 -1.87397e-08)
(-3.95132e-08 -2.57806e-09 -2.64109e-08)
(-2.36225e-08 2.13442e-10 -2.12684e-08)
(-1.11202e-08 -1.33484e-11 -5.48523e-09)
(2.5728e-09 -9.76867e-10 1.82177e-08)
(1.32368e-08 1.36981e-09 2.54858e-08)
(1.14803e-08 3.53356e-09 1.93141e-08)
(3.09065e-09 3.5743e-09 1.10625e-08)
(-6.09008e-09 1.53943e-09 2.37408e-09)
(-4.56493e-09 -9.54909e-10 -4.08456e-09)
(6.99276e-10 -1.29691e-09 -4.34007e-09)
(1.18051e-08 -5.48546e-09 -1.62428e-08)
(2.4397e-08 -1.50472e-08 -4.45297e-08)
(-2.94404e-08 -7.90879e-09 -6.24516e-08)
(-8.99449e-08 2.30477e-08 -6.20325e-08)
(-4.20939e-08 2.59661e-08 -1.05164e-08)
(2.60719e-09 -7.40662e-09 -1.25707e-08)
(-5.44882e-08 -9.58914e-09 -1.35586e-07)
(-5.92833e-08 1.53235e-08 -8.98151e-08)
(-1.17479e-08 5.37071e-09 -1.05606e-08)
(5.81577e-08 -3.07769e-08 1.61952e-08)
(6.41428e-08 -2.45454e-08 -1.65281e-08)
(4.05816e-08 -2.23834e-09 -2.3347e-08)
(1.79327e-08 8.59e-09 -1.69221e-08)
(-4.47389e-09 1.08477e-08 -1.20876e-08)
(-2.42316e-08 6.937e-09 -8.67403e-09)
(-2.31312e-08 1.54391e-09 -5.98186e-09)
(-1.09097e-08 -1.12616e-10 -3.85532e-09)
(-4.9596e-09 3.24711e-11 -3.37029e-09)
(-5.32535e-09 1.06961e-09 -8.08762e-09)
(-1.23253e-08 3.98049e-09 -2.15402e-08)
(-2.84947e-08 1.83248e-09 -1.97518e-08)
(-2.39218e-08 -2.22909e-09 -5.72182e-09)
(-7.86249e-09 -1.93351e-09 9.96856e-10)
(7.05276e-10 -7.14601e-10 4.54444e-09)
(1.98182e-09 2.63631e-10 3.64186e-09)
(-3.45995e-09 -2.26738e-09 -6.78557e-09)
(1.38677e-10 2.84368e-10 7.63469e-10)
(-6.34321e-09 1.17899e-09 5.51275e-09)
(-2.43868e-08 -5.76856e-09 -6.59304e-09)
(-4.10214e-08 -6.36814e-09 -1.40359e-08)
(-4.51155e-08 -3.17617e-09 -2.14226e-08)
(-3.47858e-08 -7.07201e-10 -2.36952e-08)
(-2.49164e-08 -2.74829e-10 -1.42823e-08)
(-1.63513e-08 -1.64706e-09 6.55367e-09)
(2.68211e-09 7.08777e-10 2.5264e-08)
(1.01267e-08 4.39196e-09 2.28241e-08)
(5.86391e-09 4.90683e-09 1.40042e-08)
(-1.67771e-09 3.89902e-09 6.4396e-09)
(-3.26648e-09 -5.98456e-10 -4.03862e-09)
(2.07324e-09 -2.07927e-09 -6.09533e-09)
(1.69977e-08 -7.31899e-09 -1.86578e-08)
(4.10642e-08 -1.80419e-08 -4.36349e-08)
(-1.912e-08 -1.02969e-08 -5.07158e-08)
(-1.30999e-07 2.56948e-08 -6.06991e-08)
(-8.5072e-08 3.61964e-08 -2.0864e-08)
(1.07421e-08 -1.0704e-08 -1.00238e-08)
(-4.96853e-08 -1.73563e-08 -1.51871e-07)
(-6.85283e-08 1.98814e-08 -1.06445e-07)
(-1.66987e-08 1.04068e-08 -1.80749e-08)
(4.01611e-08 -3.65545e-08 1.78217e-08)
(4.27936e-08 -3.02301e-08 -1.39379e-08)
(3.454e-08 -5.11182e-09 -2.07592e-08)
(2.76867e-08 9.2847e-09 -1.61981e-08)
(1.85846e-08 1.52804e-08 -1.27362e-08)
(-7.34374e-10 1.217e-08 -9.25462e-09)
(-1.39606e-08 4.24679e-09 -5.24664e-09)
(-1.14985e-08 5.6264e-10 -2.53481e-09)
(-7.56927e-09 9.74309e-11 -1.86453e-09)
(-1.23794e-08 7.6544e-10 -5.53656e-09)
(-2.19802e-08 3.68786e-09 -1.95538e-08)
(-2.46686e-08 3.25669e-09 -2.52808e-08)
(-2.19337e-08 -1.79e-09 -1.22391e-08)
(-1.13705e-08 -2.87463e-09 -2.98498e-09)
(-4.05654e-09 -2.30714e-09 1.26579e-09)
(-6.71095e-10 -7.99351e-10 1.13489e-09)
(-2.68873e-09 -1.79061e-09 -5.51747e-09)
(2.87671e-10 3.08971e-10 7.98224e-10)
(1.98916e-09 3.06539e-09 1.21926e-08)
(-7.1717e-09 -4.2362e-09 2.9658e-09)
(-2.20668e-08 -6.15341e-09 -7.50139e-09)
(-3.37242e-08 -3.01783e-09 -1.414e-08)
(-3.3078e-08 -1.37298e-09 -2.02686e-08)
(-3.07753e-08 -9.81618e-10 -1.75424e-08)
(-3.84335e-08 -2.09751e-09 -4.94239e-09)
(-2.07822e-08 1.08626e-10 1.98498e-08)
(3.07802e-11 4.94884e-09 2.3707e-08)
(2.12418e-09 3.0368e-09 7.47928e-09)
(2.68657e-09 5.89405e-09 8.08958e-09)
(2.72194e-09 6.63204e-10 -4.65073e-09)
(6.47647e-09 -2.99706e-09 -8.89681e-09)
(2.32797e-08 -9.29783e-09 -2.16497e-08)
(5.55109e-08 -2.15218e-08 -4.18499e-08)
(8.18791e-09 -1.06822e-08 -2.88131e-08)
(-1.34774e-07 2.91938e-08 -3.40047e-08)
(-1.32382e-07 4.53593e-08 -2.4179e-08)
(1.76044e-08 -1.06628e-08 -5.3246e-09)
(-1.89546e-08 -2.27112e-08 -1.29778e-07)
(-7.49893e-08 2.76527e-08 -1.36117e-07)
(-1.73443e-08 1.75869e-08 -2.54629e-08)
(2.34317e-08 -3.88068e-08 1.57459e-08)
(3.31587e-08 -3.36971e-08 -8.79573e-09)
(3.32392e-08 -7.66864e-09 -1.55667e-08)
(3.10321e-08 8.12623e-09 -1.40591e-08)
(3.37722e-08 1.60066e-08 -1.18455e-08)
(3.08463e-08 1.58687e-08 -7.95523e-09)
(1.26838e-08 8.63923e-09 -3.53313e-09)
(-2.58274e-09 2.76537e-09 -1.12678e-09)
(-6.04996e-09 7.998e-10 -6.45674e-10)
(-1.43896e-08 1.11033e-09 -2.58732e-09)
(-3.36531e-08 3.01189e-09 -1.28144e-08)
(-3.23109e-08 3.1016e-09 -2.35482e-08)
(-1.95404e-08 -8.39801e-10 -1.77844e-08)
(-1.16384e-08 -3.17806e-09 -7.96504e-09)
(-8.1118e-09 -3.913e-09 -3.89736e-09)
(-3.59542e-09 -2.18231e-09 -2.57238e-09)
(1.02343e-09 -4.44582e-10 -2.94954e-09)
(-4.11037e-10 -1.30246e-09 -3.54156e-09)
(2.40539e-09 3.15897e-09 1.40094e-08)
(7.286e-09 -3.07366e-09 1.17093e-08)
(6.50373e-09 -4.83277e-09 6.27379e-10)
(-5.5409e-09 -1.13033e-09 -6.16647e-09)
(-1.61233e-08 -6.35916e-10 -1.39114e-08)
(-2.47095e-08 -1.19645e-09 -1.68947e-08)
(-4.9487e-08 -1.89521e-09 -1.16537e-08)
(-5.46726e-08 1.46447e-10 1.25196e-08)
(-2.07171e-08 5.94429e-09 2.20173e-08)
(1.10142e-10 -4.87669e-10 -8.80738e-10)
(2.30254e-09 4.48563e-09 4.09676e-09)
(1.11668e-08 1.90542e-09 -6.74829e-09)
(1.51974e-08 -4.51987e-09 -1.35301e-08)
(2.83741e-08 -1.13357e-08 -2.26895e-08)
(5.82936e-08 -2.53224e-08 -3.65404e-08)
(3.18518e-08 -1.15838e-08 -1.05017e-08)
(-9.58159e-08 3.53941e-08 2.9633e-09)
(-1.58019e-07 5.53759e-08 -1.30088e-08)
(1.19154e-08 -5.36927e-09 -1.5448e-09)
(3.19547e-08 -2.87273e-08 -1.06731e-07)
(-4.08179e-08 3.28293e-08 -1.37907e-07)
(-1.33635e-08 2.91068e-08 -3.19916e-08)
(1.58605e-08 -3.84712e-08 1.32522e-08)
(3.50112e-08 -3.61868e-08 -1.27996e-09)
(3.76736e-08 -9.07013e-09 -9.22014e-09)
(3.39946e-08 7.28893e-09 -1.19588e-08)
(3.75486e-08 1.41892e-08 -1.14879e-08)
(4.54598e-08 1.40704e-08 -6.43313e-09)
(3.94395e-08 9.82728e-09 -9.30518e-11)
(1.72371e-08 5.51659e-09 1.93701e-09)
(6.55866e-10 2.44916e-09 8.49816e-10)
(-9.31188e-09 2.34004e-09 -5.03029e-10)
(-3.34022e-08 3.84444e-09 -6.82614e-09)
(-4.28698e-08 2.8591e-09 -1.7114e-08)
(-2.59996e-08 -2.66977e-10 -1.87547e-08)
(-1.18408e-08 -2.77636e-09 -1.27123e-08)
(-9.6715e-09 -4.79677e-09 -1.0693e-08)
(-6.668e-09 -3.55736e-09 -8.85938e-09)
(5.06111e-09 1.07061e-09 9.23685e-10)
(5.00575e-09 -1.20904e-09 -5.58817e-09)
(-4.83511e-09 9.23264e-10 1.09035e-08)
(4.03356e-09 -6.09446e-09 1.45345e-08)
(2.32444e-08 -6.80849e-09 3.77522e-09)
(2.59818e-08 -5.54323e-10 -1.94417e-09)
(1.28568e-08 8.06195e-10 -8.13628e-09)
(-4.39022e-09 -1.75736e-10 -1.33534e-08)
(-3.63321e-08 -1.84913e-10 -1.28368e-08)
(-7.76552e-08 1.76335e-09 7.14584e-09)
(-5.43073e-08 8.46685e-09 2.02269e-08)
(-3.43326e-09 2.74254e-09 3.03149e-09)
(-2.06252e-10 -4.51096e-10 -1.29289e-10)
(1.45667e-08 1.49369e-09 -8.18374e-09)
(2.35437e-08 -6.45685e-09 -1.61421e-08)
(3.28937e-08 -1.50294e-08 -2.1504e-08)
(4.76522e-08 -2.79103e-08 -2.58304e-08)
(3.52286e-08 -1.3546e-08 -3.05341e-09)
(-3.86084e-08 4.19636e-08 2.43349e-08)
(-1.39759e-07 6.97186e-08 7.0972e-09)
(-1.35573e-08 5.73585e-09 1.37809e-09)
(8.56488e-08 -3.03422e-08 -7.41997e-08)
(1.77404e-08 3.77123e-08 -1.13929e-07)
(-2.02838e-09 2.75796e-08 -2.10216e-08)
(1.2421e-08 -3.67518e-08 1.25357e-08)
(4.01506e-08 -3.72126e-08 8.21294e-09)
(4.35466e-08 -8.28003e-09 -2.76251e-09)
(3.80412e-08 7.62547e-09 -1.02121e-08)
(4.0843e-08 1.22449e-08 -1.06499e-08)
(5.07266e-08 1.00806e-08 -3.66822e-09)
(5.11557e-08 6.43315e-09 4.89382e-09)
(3.30876e-08 5.18226e-09 6.80751e-09)
(1.07977e-08 3.72095e-09 3.36582e-09)
(6.64134e-11 3.92334e-09 1.36893e-09)
(-2.02271e-08 6.31086e-09 -3.12896e-09)
(-4.10432e-08 4.71029e-09 -1.20801e-08)
(-3.40356e-08 6.71294e-10 -1.56764e-08)
(-1.77315e-08 -1.87675e-09 -1.50048e-08)
(-1.13203e-08 -4.29946e-09 -1.74131e-08)
(-9.90219e-09 -3.78615e-09 -1.70155e-08)
(5.40302e-09 1.2306e-09 3.09502e-09)
(1.38841e-08 7.79916e-10 -4.77515e-09)
(-6.53576e-09 -1.30219e-09 8.01777e-09)
(6.93097e-10 -1.19112e-08 1.98194e-08)
(2.15185e-08 -1.20709e-08 5.23556e-09)
(2.89157e-08 -2.62022e-09 -6.3832e-09)
(2.62253e-08 1.15299e-09 -1.02744e-08)
(1.60763e-08 5.42168e-10 -1.20981e-08)
(-8.24304e-09 1.87773e-09 -1.12399e-08)
(-6.2579e-08 5.97443e-09 5.0839e-09)
(-8.47638e-08 1.25036e-08 2.03405e-08)
(3.88557e-10 -1.5558e-10 -1.01858e-10)
(-5.56975e-10 -4.82681e-09 1.78612e-09)
(1.03541e-08 3.40569e-10 -6.43736e-09)
(3.32268e-08 -1.08064e-08 -1.89756e-08)
(3.09929e-08 -1.81487e-08 -1.62094e-08)
(3.09806e-08 -2.55105e-08 -1.41315e-08)
(2.3363e-08 -1.41528e-08 -2.15942e-09)
(-1.05786e-09 4.32257e-08 2.27363e-08)
(-8.31243e-08 8.76922e-08 2.08526e-08)
(-4.28566e-08 2.32189e-08 5.23999e-09)
(1.07106e-07 -2.79977e-08 -3.87881e-08)
(8.27796e-08 4.38911e-08 -7.0805e-08)
(5.12238e-09 2.04465e-08 -1.08524e-08)
(1.02923e-08 -3.34879e-08 1.43817e-08)
(4.56081e-08 -3.6029e-08 1.9848e-08)
(4.74958e-08 -5.27641e-09 3.15758e-09)
(3.99875e-08 8.64139e-09 -9.30841e-09)
(4.28737e-08 1.0301e-08 -9.69889e-09)
(5.46092e-08 6.2974e-09 7.87785e-10)
(5.76533e-08 2.5179e-09 1.25678e-08)
(4.02612e-08 2.71645e-09 1.37218e-08)
(1.56329e-08 3.16432e-09 6.47503e-09)
(5.99615e-09 3.95439e-09 3.02661e-09)
(-4.93915e-09 7.80513e-09 -7.13905e-10)
(-2.63661e-08 8.05019e-09 -9.6647e-09)
(-3.32811e-08 3.39609e-09 -1.44739e-08)
(-2.4375e-08 4.0926e-11 -1.55836e-08)
(-1.62987e-08 -2.47649e-09 -2.231e-08)
(-1.1074e-08 -1.5789e-09 -2.47876e-08)
(2.01094e-09 3.67584e-10 1.74628e-09)
(1.77155e-08 3.52162e-09 -2.61588e-09)
(-3.02323e-09 -2.1008e-09 4.99701e-09)
(3.01276e-09 -1.8229e-08 2.9849e-08)
(1.23872e-08 -1.69786e-08 1.41553e-08)
(1.28731e-08 -4.314e-09 -9.82016e-09)
(1.61196e-08 1.04673e-09 -1.92109e-08)
(1.95021e-08 6.02857e-11 -1.91868e-08)
(1.16366e-08 2.03129e-09 -1.28265e-08)
(-2.87111e-08 9.77276e-09 4.30806e-09)
(-8.32124e-08 1.81904e-08 2.21518e-08)
(-1.0932e-08 3.1021e-09 1.91965e-09)
(6.47442e-09 -5.68603e-09 4.00099e-09)
(4.17096e-09 -3.06013e-10 -3.61689e-09)
(3.35022e-08 -1.49843e-08 -1.94797e-08)
(2.54309e-08 -1.79881e-08 -1.171e-08)
(1.83984e-08 -1.72515e-08 -6.09888e-09)
(1.33837e-08 -1.23031e-08 -1.16517e-09)
(4.245e-09 3.54977e-08 9.56445e-09)
(-2.83779e-08 9.8724e-08 1.5174e-08)
(-4.84959e-08 4.68099e-08 6.09383e-09)
(8.17859e-08 -2.38606e-08 -1.12188e-08)
(1.2082e-07 4.62449e-08 -2.96859e-08)
(1.12686e-08 2.26754e-08 -9.12901e-09)
(6.47229e-09 -2.91448e-08 1.63519e-08)
(4.26246e-08 -3.20395e-08 3.02568e-08)
(4.30009e-08 -1.46299e-09 7.0285e-09)
(3.64303e-08 8.97176e-09 -9.39303e-09)
(4.07186e-08 7.78288e-09 -9.4876e-09)
(5.62082e-08 2.54919e-09 4.9585e-09)
(6.48527e-08 -1.03664e-09 2.21437e-08)
(4.85273e-08 4.90206e-10 2.39785e-08)
(1.75161e-08 2.29783e-09 1.05517e-08)
(5.93929e-09 3.00317e-09 4.39146e-09)
(-1.00633e-09 6.97166e-09 1.21286e-09)
(-1.63859e-08 9.36457e-09 -8.1289e-09)
(-2.49195e-08 6.35761e-09 -1.45162e-08)
(-2.21568e-08 2.95739e-09 -1.64979e-08)
(-1.6404e-08 9.67466e-10 -2.45021e-08)
(-6.37789e-09 3.43689e-09 -2.95271e-08)
(-1.25936e-09 -5.36074e-11 -2.00979e-09)
(1.26718e-08 5.14751e-09 -3.37437e-10)
(-6.68014e-10 -1.2518e-09 1.86629e-09)
(3.4486e-10 -2.30205e-08 3.38336e-08)
(-5.20777e-09 -2.06085e-08 2.34561e-08)
(-9.24626e-09 -5.91576e-09 -4.68257e-09)
(-8.59931e-10 7.39986e-10 -1.9654e-08)
(1.01403e-08 1.34788e-10 -2.60997e-08)
(1.50253e-08 1.8736e-09 -1.82544e-08)
(-3.37871e-09 1.09214e-08 1.66391e-09)
(-5.22076e-08 2.13638e-08 2.20613e-08)
(-2.24379e-08 6.80854e-09 5.29036e-09)
(1.21178e-08 -3.92098e-09 1.74173e-09)
(4.29331e-10 -2.1133e-10 -1.00809e-09)
(2.7064e-08 -1.63086e-08 -1.97817e-08)
(2.13478e-08 -1.6302e-08 -9.09594e-09)
(9.35754e-09 -8.93624e-09 -8.72632e-10)
(8.90771e-09 -1.01299e-08 1.65495e-09)
(1.22786e-09 2.00077e-08 -6.78784e-09)
(-8.04737e-09 9.26564e-08 -1.47708e-08)
(-3.22754e-08 6.85513e-08 -5.90306e-09)
(3.83139e-08 -1.79919e-08 1.77435e-09)
(1.04463e-07 3.60096e-08 -6.6054e-09)
(1.12935e-08 1.91943e-08 -7.21254e-09)
(1.51413e-09 -2.97657e-08 2.05881e-08)
(2.50359e-08 -2.57235e-08 3.43426e-08)
(2.81775e-08 1.37553e-09 7.01756e-09)
(2.82632e-08 8.22776e-09 -1.12064e-08)
(3.49152e-08 4.51426e-09 -1.14733e-08)
(5.27348e-08 -2.24798e-09 4.93384e-09)
(6.91632e-08 -5.8007e-09 2.83407e-08)
(5.61971e-08 -1.95804e-09 3.38918e-08)
(2.1229e-08 1.77938e-09 1.6265e-08)
(5.47121e-09 2.34923e-09 5.7954e-09)
(-1.213e-09 5.84238e-09 3.57447e-09)
(-1.57655e-08 8.49133e-09 -6.03608e-09)
(-2.13343e-08 6.54813e-09 -1.43596e-08)
(-1.66637e-08 4.5294e-09 -1.75052e-08)
(-1.05946e-08 4.78136e-09 -2.56397e-08)
(-2.02712e-09 8.6697e-09 -2.98528e-08)
(-5.18621e-10 1.15767e-09 -5.68407e-09)
(2.71385e-09 3.43409e-09 2.3907e-09)
(-1.51936e-10 -7.98744e-10 7.55574e-10)
(-8.05728e-09 -2.51485e-08 2.6472e-08)
(-2.68396e-08 -2.45631e-08 2.32403e-08)
(-2.94639e-08 -8.781e-09 3.90062e-09)
(-1.55331e-08 -6.3959e-10 -1.0683e-08)
(-7.40709e-10 8.9794e-10 -2.29187e-08)
(1.19731e-08 3.105e-09 -2.25361e-08)
(5.82738e-09 1.17355e-08 -2.70549e-09)
(-2.60473e-08 2.11482e-08 2.03304e-08)
(-2.27821e-08 9.1966e-09 9.12702e-09)
(9.54953e-09 -2.5887e-09 -4.44017e-10)
(6.09437e-10 2.79284e-10 1.35504e-09)
(1.64304e-08 -1.43456e-08 -1.78905e-08)
(1.83348e-08 -1.6277e-08 -5.78662e-09)
(5.51475e-09 -5.69842e-09 1.86661e-09)
(8.34756e-09 -9.02783e-09 4.23242e-09)
(8.42436e-09 2.18867e-09 -1.93053e-08)
(-6.63194e-09 6.6086e-08 -5.95946e-08)
(-2.10942e-08 7.45662e-08 -3.45717e-08)
(9.32112e-09 -8.99274e-09 3.65564e-09)
(5.30814e-08 1.93229e-08 -1.16833e-09)
(2.52939e-08 4.31594e-08 -2.02e-08)
(-8.73224e-09 -2.3176e-08 1.92017e-08)
(-3.57375e-09 -1.69776e-08 2.64757e-08)
(1.08449e-08 2.42552e-09 2.24024e-09)
(2.07754e-08 6.48589e-09 -1.54792e-08)
(2.79835e-08 8.66815e-10 -1.61514e-08)
(4.36947e-08 -7.73511e-09 -1.49312e-09)
(6.56272e-08 -1.22981e-08 2.6214e-08)
(6.55765e-08 -6.04812e-09 4.25594e-08)
(2.56066e-08 1.2094e-09 2.17445e-08)
(6.22267e-09 1.91425e-09 7.28242e-09)
(1.43196e-09 5.05334e-09 6.87508e-09)
(-1.2864e-08 7.5989e-09 -2.69232e-09)
(-2.10274e-08 4.66575e-09 -1.40178e-08)
(-1.73028e-08 2.96697e-09 -1.80824e-08)
(-1.01463e-08 6.12936e-09 -2.52931e-08)
(-4.56908e-09 1.08e-08 -2.89638e-08)
(1.04148e-09 3.15184e-09 -8.65226e-09)
(-1.70937e-09 6.26142e-10 4.23948e-09)
(-4.44458e-11 -8.7429e-10 2.03521e-10)
(-1.16836e-08 -1.70949e-08 9.05699e-09)
(-3.79463e-08 -2.31785e-08 1.64174e-08)
(-4.15625e-08 -1.25885e-08 1.34351e-08)
(-2.39026e-08 -4.12007e-09 2.58648e-09)
(-6.08443e-09 -2.01278e-09 -1.13742e-08)
(1.0912e-08 6.33808e-10 -2.34105e-08)
(1.21448e-08 1.13234e-08 -1.42814e-08)
(-1.11014e-08 2.27453e-08 1.07399e-08)
(-2.23604e-08 1.35406e-08 1.24538e-08)
(3.85914e-09 -1.26528e-09 -7.85426e-10)
(-3.55926e-10 -1.16563e-11 -1.77838e-10)
(3.42796e-09 -1.02345e-08 -1.06933e-08)
(1.42576e-08 -1.63537e-08 9.91844e-10)
(9.98373e-09 -9.97155e-09 7.66331e-09)
(1.4643e-08 -1.27151e-08 8.27654e-09)
(1.99545e-08 -9.07012e-09 -2.24015e-08)
(-2.00122e-09 3.4269e-08 -8.60443e-08)
(-2.02646e-08 5.52458e-08 -6.43252e-08)
(2.64835e-11 -4.11214e-11 3.25933e-11)
(2.35473e-08 4.94836e-09 -1.17121e-09)
(2.20806e-08 2.0016e-08 -1.41715e-08)
(-1.81405e-08 -1.37458e-08 1.40678e-08)
(-1.82069e-08 -1.12246e-08 1.74614e-08)
(5.59617e-09 8.49177e-10 -1.52799e-09)
(1.87861e-08 2.98562e-09 -1.61791e-08)
(2.23108e-08 -2.57662e-09 -1.96919e-08)
(3.00637e-08 -1.23531e-08 -1.35905e-08)
(5.00651e-08 -1.90951e-08 1.02595e-08)
(6.5541e-08 -1.10495e-08 4.03577e-08)
(3.65415e-08 8.13743e-10 3.1506e-08)
(7.24622e-09 1.6011e-09 8.45733e-09)
(5.26973e-09 4.1723e-09 1.10629e-08)
(-6.45598e-09 6.80651e-09 5.00544e-09)
(-1.7789e-08 2.86002e-09 -1.20796e-08)
(-1.78876e-08 3.91594e-10 -1.96204e-08)
(-1.37908e-08 4.70177e-09 -2.4836e-08)
(-6.78376e-09 9.22985e-09 -2.51619e-08)
(-3.33484e-10 3.71193e-09 -8.6952e-09)
(-4.42168e-11 -1.51065e-10 1.78889e-09)
(-8.30684e-10 -1.15294e-09 -1.13965e-09)
(-1.56488e-08 -1.24315e-08 -8.81625e-10)
(-3.24921e-08 -1.69396e-08 9.043e-09)
(-3.56222e-08 -1.25473e-08 1.81334e-08)
(-2.25492e-08 -6.88644e-09 1.435e-08)
(-8.65423e-09 -6.42055e-09 2.96833e-09)
(5.85798e-09 -5.90896e-09 -1.44415e-08)
(9.29246e-09 4.68048e-09 -2.02681e-08)
(-4.87392e-09 1.79397e-08 -2.89273e-09)
(-1.37522e-08 1.29807e-08 5.8302e-09)
(-4.6438e-10 2.25646e-10 1.15345e-10)
(-2.74008e-09 4.23227e-10 -1.36612e-10)
(-3.77496e-09 -6.80579e-09 -1.65981e-09)
(1.48078e-08 -1.97423e-08 9.18629e-09)
(1.85792e-08 -1.76435e-08 1.24839e-08)
(2.50885e-08 -1.97516e-08 1.1186e-08)
(2.55455e-08 -8.59318e-09 -1.52793e-08)
(6.87661e-09 2.69402e-08 -8.42298e-08)
(-2.40542e-08 3.96712e-08 -7.77231e-08)
(-7.04768e-09 5.10211e-09 -8.09759e-09)
(3.32433e-08 -1.79134e-09 5.30468e-09)
(2.60006e-08 9.06805e-09 -1.01754e-08)
(-1.26832e-08 -7.75156e-09 1.10868e-08)
(-5.62689e-09 -1.135e-08 1.87423e-08)
(1.25899e-08 -4.49012e-09 3.70432e-09)
(1.60344e-08 -1.85497e-09 -1.14078e-08)
(1.30184e-08 -5.09312e-09 -2.0942e-08)
(1.34297e-08 -1.28656e-08 -2.8008e-08)
(2.75579e-08 -2.0086e-08 -1.88805e-08)
(5.35094e-08 -1.35637e-08 1.8786e-08)
(4.34527e-08 7.90578e-10 3.41948e-08)
(5.12462e-09 1.0383e-09 5.61009e-09)
(8.47277e-09 3.91334e-09 1.43796e-08)
(4.71147e-10 6.882e-09 1.86069e-08)
(-1.52177e-08 1.06176e-09 -3.45033e-09)
(-1.60182e-08 -2.92329e-09 -2.01177e-08)
(-1.23006e-08 1.62655e-09 -2.55317e-08)
(-7.90942e-09 6.80838e-09 -2.38399e-08)
(-4.29198e-09 5.94938e-09 -9.5407e-09)
(-7.96207e-10 3.50159e-10 -7.78914e-10)
(-2.77544e-09 -8.34749e-10 -9.1947e-10)
(-1.96756e-08 -1.04596e-08 -3.49922e-09)
(-3.1217e-08 -1.9327e-08 -3.38413e-09)
(-1.89688e-08 -1.13791e-08 4.07415e-09)
(-1.01286e-08 -4.62967e-09 1.10239e-08)
(-5.37845e-09 -3.66186e-09 9.34509e-09)
(-2.24973e-09 -6.22793e-09 -4.27124e-09)
(-3.79077e-09 -1.06723e-09 -1.72818e-08)
(-1.16041e-08 1.44922e-08 -9.89684e-09)
(-1.17532e-08 1.25682e-08 1.28776e-09)
(-1.24905e-09 8.76368e-10 3.03626e-10)
(-3.05014e-09 9.35128e-10 7.05617e-10)
(-3.67341e-09 -8.0398e-09 3.8435e-09)
(1.98588e-08 -2.92394e-08 8.09738e-09)
(1.35453e-08 -1.46699e-08 4.07065e-09)
(2.40465e-08 -2.09029e-08 6.48675e-09)
(1.98527e-08 -1.92666e-09 -6.24409e-09)
(1.67514e-08 3.24506e-08 -5.0975e-08)
(-3.02481e-09 3.89052e-08 -6.63425e-08)
(-9.28065e-09 9.6069e-09 -1.8001e-08)
(2.07822e-08 -3.00612e-09 8.32976e-09)
(1.70197e-08 6.69781e-09 -8.85495e-09)
(-4.63629e-09 -5.77343e-09 8.71778e-09)
(-3.75673e-09 -1.70381e-08 2.32333e-08)
(-2.73923e-09 -1.11747e-08 8.31865e-09)
(-5.60948e-09 -5.26956e-09 -9.13876e-09)
(-7.38238e-09 -5.45303e-09 -2.0697e-08)
(-5.84951e-09 -9.52514e-09 -3.39676e-08)
(9.21566e-09 -1.38254e-08 -4.12651e-08)
(4.00643e-08 -9.37111e-09 -1.21973e-08)
(4.51413e-08 2.28104e-09 2.53589e-08)
(8.6175e-09 1.91195e-09 8.29711e-09)
(1.46611e-08 5.60404e-09 1.96569e-08)
(1.28571e-08 8.71433e-09 3.01779e-08)
(-4.60933e-09 1.86757e-09 1.42452e-08)
(-1.27454e-08 -6.31416e-09 -1.5082e-08)
(-1.04646e-08 -2.76216e-09 -2.7195e-08)
(-7.28032e-09 2.71234e-09 -2.42328e-08)
(-7.52635e-09 6.15777e-09 -9.20258e-09)
(-5.19315e-09 1.55595e-09 -5.57155e-10)
(-9.29072e-09 -1.57495e-09 7.82533e-10)
(-2.45349e-08 -9.67637e-09 -1.13341e-09)
(-2.47544e-08 -1.22443e-08 -7.0577e-09)
(-1.67566e-08 -8.85288e-09 -1.07382e-08)
(-1.52576e-09 9.50323e-10 -2.89209e-09)
(3.1915e-09 4.26118e-09 4.43503e-09)
(-1.52524e-09 6.64704e-10 6.36909e-10)
(-1.28796e-08 2.08245e-10 -1.0844e-08)
(-2.2118e-08 1.14193e-08 -1.04138e-08)
(-1.50022e-08 1.23023e-08 -4.0896e-10)
(-1.50631e-09 1.18121e-09 3.66438e-10)
(-4.56227e-09 1.73983e-09 1.90747e-09)
(5.63102e-10 -1.12633e-08 3.11708e-09)
(2.37265e-08 -3.54143e-08 -8.01834e-11)
(4.70234e-08 -5.30168e-08 1.98604e-09)
(2.09863e-08 -1.72247e-08 4.53541e-09)
(1.02374e-08 4.27825e-09 -1.56671e-09)
(7.24613e-09 3.4641e-08 -3.22499e-08)
(8.5856e-09 3.52872e-08 -4.58066e-08)
(3.62751e-09 1.04171e-08 -1.70536e-08)
(-3.65436e-09 -1.22179e-09 5.08866e-09)
(-6.48598e-09 7.30411e-09 -6.44195e-09)
(3.58045e-09 -8.05502e-09 8.48555e-09)
(-1.09353e-08 -2.41812e-08 2.41141e-08)
(-4.14065e-08 -1.28854e-08 8.34626e-09)
(-4.59625e-08 -4.42255e-09 -6.21805e-09)
(-3.4915e-08 -5.475e-09 -1.4895e-08)
(-2.58077e-08 -1.13473e-08 -2.72215e-08)
(-1.0405e-08 -1.48315e-08 -4.56498e-08)
(1.98496e-08 -4.62525e-09 -3.72026e-08)
(3.54308e-08 6.4233e-09 6.13437e-09)
(9.51153e-09 2.79964e-09 7.99393e-09)
(-1.1841e-09 -4.69189e-10 -1.36644e-09)
(2.03157e-08 9.85948e-09 2.86372e-08)
(1.86737e-08 8.15051e-09 3.08991e-08)
(2.83117e-09 -4.47615e-09 -2.32156e-09)
(-4.64916e-09 -5.68976e-09 -2.42983e-08)
(-6.2335e-09 -6.01203e-10 -1.78543e-08)
(-1.16919e-08 2.28503e-09 -8.86242e-09)
(-1.28209e-08 5.51018e-10 -7.03532e-12)
(-1.87062e-08 -2.49316e-09 2.13063e-09)
(-3.15987e-08 -7.35344e-09 5.5871e-11)
(-3.11946e-08 -1.00763e-08 -6.99281e-09)
(-1.32754e-08 -5.18489e-09 -1.52533e-08)
(1.10763e-08 8.2502e-09 -1.26643e-08)
(1.56506e-08 1.43037e-08 -2.71668e-09)
(4.88151e-09 1.14411e-08 1.28997e-09)
(-1.63172e-08 7.82407e-09 -4.41077e-09)
(-3.01147e-08 1.09355e-08 -7.00676e-09)
(-1.89273e-08 9.76251e-09 -8.91189e-10)
(-2.99372e-09 1.65706e-09 4.77262e-10)
(-4.3981e-09 4.01225e-10 1.31388e-09)
(5.34754e-09 -1.40353e-08 -1.50871e-09)
(2.90939e-08 -3.31975e-08 -4.64293e-09)
(3.93817e-08 -3.00233e-08 4.5846e-09)
(2.0275e-08 -7.5393e-09 1.04218e-08)
(7.76188e-09 9.87838e-09 6.75185e-09)
(1.67284e-09 3.22973e-08 -1.60535e-08)
(8.62903e-09 2.69503e-08 -3.09138e-08)
(1.11277e-08 7.34058e-09 -1.44619e-08)
(-4.41246e-09 3.87465e-10 1.49043e-09)
(-5.74825e-09 2.82225e-09 -1.48089e-09)
(5.35599e-09 -7.79367e-09 7.78674e-09)
(-2.34215e-08 -7.61977e-09 1.22306e-08)
(-6.88887e-08 -1.53107e-09 4.56214e-09)
(-5.37105e-08 -5.59253e-09 -3.20434e-09)
(-2.3949e-08 -1.27908e-08 -5.88484e-09)
(-1.36687e-08 -2.2044e-08 -1.5122e-08)
(-2.08017e-08 -2.80512e-08 -4.30117e-08)
(-2.55194e-08 -6.17423e-09 -5.93763e-08)
(-1.19101e-09 1.24025e-08 -2.07546e-08)
(4.72762e-09 3.43908e-09 3.83994e-09)
(-1.06999e-08 -4.847e-09 -1.22982e-08)
(1.06531e-08 4.25655e-09 1.20158e-08)
(3.70878e-08 1.20741e-08 3.54443e-08)
(2.9573e-08 3.70067e-09 1.42249e-08)
(7.24781e-09 -2.91613e-09 -1.19875e-08)
(4.54113e-09 2.05345e-09 9.92233e-10)
(-1.82315e-08 1.30138e-09 6.34045e-09)
(-3.30182e-08 5.83357e-10 9.27505e-09)
(-2.91002e-08 -1.72408e-09 5.56416e-09)
(-2.29138e-08 -6.37763e-09 1.53547e-09)
(-1.31983e-08 -1.51107e-08 -6.44654e-09)
(1.20337e-08 -1.59118e-08 -2.40389e-08)
(3.24378e-08 7.64153e-09 -3.2454e-08)
(2.72469e-08 2.59223e-08 -2.01937e-08)
(8.88459e-09 2.68118e-08 -4.53418e-09)
(-1.88741e-08 1.87851e-08 3.49956e-09)
(-3.78404e-08 1.10979e-08 4.80876e-10)
(-2.21338e-08 5.7524e-09 -1.67565e-09)
(-7.79235e-09 1.89472e-09 -1.0997e-09)
(-4.36749e-09 -1.30162e-09 -2.91559e-09)
(1.01922e-08 -1.16658e-08 -5.75982e-09)
(3.01031e-08 -2.10217e-08 4.56478e-10)
(3.09754e-08 -1.65825e-08 1.22354e-08)
(1.77287e-08 -5.68738e-09 1.50056e-08)
(5.77364e-09 5.1039e-09 1.22197e-08)
(-1.76043e-09 1.36632e-08 1.67721e-09)
(2.02362e-09 1.58055e-08 -1.01209e-08)
(6.61916e-09 4.40059e-09 -8.59186e-09)