/*--------------------------------*- C++ -*----------------------------------*\
| =========                 |                                                 |
| \\      /  F ield         | OpenFOAM: The Open Source CFD Toolbox           |
|  \\    /   O peration     | Version:  5.0                                   |
|   \\  /    A nd           | Web:      www.OpenFOAM.org                      |
|    \\/     M anipulation  |                                                 |
\*---------------------------------------------------------------------------*/
FoamFile
{
    version     2.0;
    format      ascii;
    class       volScalarField;
    location    "50.4676134421789371";
    object      Put;
}
// * * * * * * * * * * * * * * * * * * * * * * * * * * * * * * * * * * * * * //

dimensions      [0 1 -2 1 0 0 0];

internalField   nonuniform List<scalar> 
60000
(
0.000205585
0.000298159
0.000259241
0.000114459
-1.44959e-05
-5.74094e-05
-4.14039e-05
-8.14211e-06
3.52805e-06
8.77673e-06
0.000111064
0.00018993
0.000129618
0.000126807
0.000218814
0.000243944
-0.000100729
-0.000507181
-0.000853501
-0.000871208
-0.000790846
-0.000291115
0.000274275
0.000307723
-0.000447299
-0.000934738
-0.00052101
0.000267137
0.000603683
0.000499254
0.000306346
0.000404795
0.000592523
0.000537758
0.000240818
-0.000102658
0.000102942
6.94108e-05
6.11151e-05
9.10926e-05
0.000924136
0.00118714
0.000655476
-4.94819e-05
-0.000412115
-0.000275359
-3.03094e-05
0.000181347
6.65277e-05
0.000354511
0.000833095
0.00101263
0.000337133
-0.00035505
-0.000591485
-0.00111763
-0.00218781
-0.00300196
-0.0021492
0.000225899
0.0021979
0.00267239
0.00145918
-0.00211765
-0.00716844
-0.0104971
-0.00881752
-0.00374106
0.000375339
0.00111016
-0.000321156
-0.00108402
-0.000166521
0.000668478
0.000645171
-0.000293014
-0.000533043
-0.00093986
-0.00061473
0.000242892
0.000190063
0.000572746
0.000366093
-9.70733e-05
-0.000303339
-0.000173789
-8.71847e-05
6.14566e-05
6.33135e-06
4.76401e-05
0.000184775
0.000423947
0.000312391
-5.41594e-05
-0.000366472
-0.000810583
-0.00143533
-0.00194051
-0.0012518
0.000689405
0.0022903
0.0023167
0.000781653
-0.00172842
-0.00412751
-0.00525506
-0.00408689
-0.0015219
0.000693117
0.00120283
0.000238823
-0.00078228
-0.000841135
-0.000361538
8.35293e-05
-9.8815e-06
-0.000301385
-0.000662412
-0.000826069
-0.000430719
-5.53967e-05
4.89787e-05
6.28167e-05
-5.2732e-06
-4.27918e-05
-3.00125e-05
-2.5347e-05
-1.90861e-06
1.359e-06
-6.60946e-06
-1.02218e-05
1.52822e-05
4.17654e-05
1.43499e-05
-2.84693e-05
-5.04499e-05
-0.000122253
-0.000344683
-0.00040883
0.000169622
0.000604403
0.000443571
1.50765e-05
-0.000378364
-0.000603308
-0.000626665
-0.000395869
1.28126e-05
0.000486488
0.00068937
0.000407237
7.13811e-06
-0.000148952
-0.000132399
-6.20997e-05
1.24932e-05
2.71094e-05
-7.76933e-05
-0.000152958
-0.000141367
-1.70558e-05
-1.0706e-05
1.95092e-06
-1.9568e-06
-4.80726e-06
-1.58367e-05
-2.53261e-05
-1.01739e-05
-3.57367e-07
-7.71767e-08
1.12165e-06
-2.3169e-05
-9.27269e-06
-7.78168e-06
8.74978e-06
0.000113705
0.000161504
-1.20067e-05
-0.000244897
0.000176591
0.000501364
5.15079e-05
-9.13659e-05
0.000193956
0.000257519
0.000123596
2.36275e-05
-2.36975e-06
7.76696e-05
0.000224894
0.000205229
4.44282e-05
-1.53384e-05
-1.188e-06
-5.39148e-06
-9.52196e-06
9.76112e-06
-1.85659e-05
-1.20005e-05
-2.29062e-06
8.6863e-06
-2.69515e-06
6.25642e-06
4.89299e-06
2.61312e-07
-7.39604e-06
-1.95267e-05
-1.65859e-05
-2.40236e-06
-2.39253e-06
1.43384e-06
-1.22478e-05
-2.23704e-05
-6.42033e-06
4.86405e-06
0.000115786
0.000188265
8.86676e-05
-0.000112719
0.000229858
0.000736837
0.000135473
-0.000117722
0.000305825
0.000280402
7.52768e-05
1.01715e-05
-6.19573e-06
-4.64459e-06
2.11784e-05
6.17848e-05
3.32696e-05
-6.6962e-06
-1.48819e-05
-4.64958e-06
5.61245e-06
7.78357e-06
-3.33726e-06
-1.95845e-06
1.26621e-05
4.6216e-06
2.95784e-06
5.49252e-06
5.98329e-06
2.60903e-06
-1.60188e-07
-5.37635e-06
-8.92052e-06
-5.46207e-06
-1.74977e-06
-3.20599e-06
-1.1911e-07
-1.05889e-05
-1.05209e-05
4.35913e-07
6.75972e-05
0.000110828
7.37067e-05
-1.91565e-05
0.000233049
0.00082269
0.000278906
-8.90193e-05
0.000193618
8.81819e-05
3.8826e-06
3.25036e-06
5.86483e-07
-1.40519e-06
-1.67753e-06
-3.87563e-06
2.68404e-06
3.00276e-06
-6.6769e-06
-1.68729e-05
-6.09858e-06
3.53929e-06
2.69182e-06
4.46184e-07
2.27295e-06
-1.06304e-07
1.50802e-06
3.39611e-06
3.01517e-06
1.07729e-06
4.79982e-07
-2.9038e-07
-1.39954e-06
-2.46889e-06
-1.0723e-06
1.52423e-07
3.05796e-06
1.67716e-06
-8.22809e-06
-2.88616e-06
3.09068e-05
3.58145e-05
3.03233e-05
2.30664e-06
0.000128581
0.000637455
0.000302384
-6.40567e-05
5.36067e-05
3.75953e-06
-5.25353e-06
-1.91433e-06
9.50116e-07
2.50656e-07
3.35871e-07
-6.63979e-07
-2.14384e-06
-2.85188e-06
-4.17101e-08
-1.89594e-06
-5.961e-06
-1.88787e-06
5.91509e-07
5.13302e-07
-1.35491e-07
-3.02776e-07
-1.06125e-07
7.36771e-07
8.45021e-07
2.50252e-07
2.0247e-07
3.03448e-08
-1.99699e-08
-1.75446e-07
-2.73839e-07
2.14526e-06
6.4301e-06
5.14536e-06
-4.66019e-06
-2.21685e-06
1.2055e-05
9.42774e-06
7.4877e-06
5.04248e-07
2.89708e-05
0.000288764
0.000217421
-4.61344e-05
6.50822e-07
-4.16109e-06
-1.0879e-06
-2.83436e-07
-2.79676e-07
5.14495e-08
4.94014e-08
6.5714e-09
-1.29289e-07
-4.60834e-07
-1.24615e-06
2.3015e-07
-9.92908e-08
-1.16175e-06
-3.50468e-07
9.67615e-08
1.05386e-08
-5.24362e-09
-1.18362e-07
4.04268e-08
1.84746e-07
2.13867e-07
3.35727e-08
2.05912e-08
2.63913e-08
2.22713e-08
-7.00635e-08
8.34639e-07
5.31164e-06
4.74682e-06
-1.3904e-06
-6.06182e-07
3.16779e-06
3.94583e-06
1.60224e-06
-4.20274e-07
1.6114e-06
6.13226e-05
0.000102131
-2.17423e-05
-9.06218e-06
-7.67238e-08
4.98154e-07
9.85824e-08
-5.6316e-09
-5.73801e-08
-6.82206e-09
9.40578e-09
-1.35244e-09
-4.19468e-08
-1.35828e-07
-1.74566e-07
1.39453e-07
2.82357e-08
-1.14426e-07
2.16981e-08
7.78866e-08
3.35178e-08
4.10236e-09
-1.43197e-08
2.21671e-08
8.76359e-09
1.97622e-09
1.01455e-09
5.70963e-09
8.1245e-09
-3.32336e-10
1.56133e-08
1.45035e-06
2.37273e-06
5.24158e-08
2.31484e-07
2.38071e-07
9.75925e-07
9.12814e-07
-2.20269e-07
5.31289e-08
3.26781e-06
2.73851e-05
-3.11874e-06
-5.91307e-06
9.98251e-07
4.63179e-07
9.27887e-08
-4.75144e-09
-9.47081e-11
1.17844e-09
-9.5794e-10
8.11341e-10
3.06415e-10
7.84073e-09
-7.60011e-09
4.94248e-09
3.21345e-08
1.29253e-08
1.44851e-08
2.89875e-08
4.87464e-09
2.55357e-09
-1.70368e-10
1.6851e-09
2.02286e-10
5.39528e-12
1.64082e-12
-2.44007e-11
6.79328e-10
1.01121e-09
-1.91353e-09
3.0685e-07
5.39934e-07
-3.7806e-08
1.11969e-07
2.09477e-08
-4.46229e-08
1.8029e-07
-4.38024e-08
3.66888e-08
-2.98376e-07
3.75362e-06
1.06873e-06
-1.38877e-06
6.6412e-07
3.53751e-07
6.37431e-09
3.45911e-12
5.82631e-13
3.92587e-12
-2.67639e-12
-2.38092e-12
9.67123e-13
2.78261e-12
-3.93655e-13
-3.81588e-13
4.80622e-13
1.67117e-09
2.45581e-12
3.18171e-09
-8.83292e-13
-1.72751e-11
1.85304e-11
2.62437e-11
2.17309e-12
5.24216e-14
4.46423e-16
-1.18323e-13
7.60711e-12
-5.20257e-11
-5.53342e-10
1.29958e-08
1.31433e-07
8.95119e-11
1.38644e-09
7.43358e-09
-1.51209e-08
5.73478e-10
1.30501e-09
2.39649e-08
-7.82452e-09
4.45001e-07
2.7636e-07
-9.13165e-08
2.54954e-07
5.73451e-09
1.02161e-10
-1.10518e-13
-8.99394e-14
-1.89477e-14
8.72536e-15
1.28736e-14
-4.48936e-15
-1.07007e-14
5.16545e-16
2.44165e-15
1.04439e-14
1.02407e-14
5.81534e-14
-1.13995e-13
-1.53772e-16
-1.09021e-13
-1.24618e-14
9.16968e-14
7.75186e-15
7.93513e-17
6.24341e-17
-3.40131e-16
-2.29501e-14
1.21498e-13
-1.14795e-12
-2.65416e-09
2.35035e-08
7.44709e-09
-4.96351e-11
3.75685e-12
5.32712e-13
7.90287e-09
5.32521e-09
-6.77765e-10
-1.25028e-09
3.82003e-08
3.46121e-08
-5.63631e-09
-5.43124e-09
5.18536e-12
2.51517e-14
5.40445e-16
2.29083e-16
5.86691e-18
-4.30317e-18
-3.72957e-17
1.18069e-17
5.27928e-17
1.70961e-18
-1.4544e-18
1.67422e-17
7.48859e-17
1.00951e-15
5.13391e-16
1.10296e-16
-4.7119e-16
-2.74458e-16
1.31667e-16
1.03399e-18
-1.65015e-18
-4.90228e-19
1.5786e-18
2.34595e-17
-4.94682e-16
-6.60734e-16
2.11022e-13
-5.66022e-12
-2.0895e-11
-1.76686e-12
5.53559e-14
3.3271e-15
-1.24206e-14
2.53224e-14
1.88783e-12
5.96338e-12
5.00628e-13
-3.14754e-11
-1.35767e-11
1.9362e-13
6.33266e-14
2.07841e-15
1.25171e-17
2.36662e-18
1.50605e-18
5.34268e-18
-3.06237e-19
-5.19604e-18
2.21733e-18
1.56472e-18
3.68508e-18
1.57123e-19
-0
7.69453e-18
-2.62067e-18
-8.10948e-19
1.35503e-18
-2.50964e-18
1.46506e-19
2.77428e-19
4.57333e-20
2.09818e-20
-2.77945e-19
5.75685e-20
-3.32581e-19
-8.3709e-19
5.11657e-16
-1.02364e-14
-9.77445e-14
-1.20554e-14
2.34312e-15
2.12037e-16
2.78922e-16
-2.10688e-15
-1.04079e-14
-1.8933e-14
3.76329e-15
-1.17542e-13
-8.54908e-14
1.70071e-14
2.08645e-15
7.01429e-17
4.30498e-18
-3.60274e-18
3.53411e-18
1.07664e-17
-1.83549e-18
-7.08807e-19
7.64545e-18
1.51411e-18
-6.21348e-18
-3.42327e-18
4.04437e-20
-3.1593e-19
3.98438e-20
3.36602e-19
-1.25844e-18
-4.00247e-19
-1.7179e-19
-5.56693e-21
6.027e-19
-1.94755e-20
2.10473e-20
1.25061e-19
-7.98389e-21
1.67371e-19
1.84707e-18
-2.63044e-17
-1.93043e-16
6.17979e-17
2.85227e-17
-6.88345e-19
-3.42759e-19
6.00048e-18
2.41698e-17
4.03141e-17
1.64065e-17
-3.0624e-16
-1.28588e-16
2.0661e-16
3.27578e-17
4.10715e-18
2.51524e-19
-2.43097e-19
-3.15635e-19
4.68504e-18
-2.13069e-18
4.09147e-19
-3.21799e-18
6.1566e-19
2.67626e-18
-5.99047e-18
1.817e-18
9.25214e-20
1.45609e-19
3.878e-19
-5.4845e-20
-1.7649e-19
2.41507e-18
3.70162e-18
1.68816e-18
9.01517e-19
1.98858e-19
1.15464e-19
-0
3.74472e-19
-1.31103e-18
-2.1072e-18
-4.7733e-18
2.71837e-19
-9.04518e-19
7.47114e-19
-6.43342e-20
-7.77922e-20
-4.73952e-20
1.4963e-18
-2.78289e-19
-2.12024e-18
-2.41228e-18
6.2603e-19
-6.50266e-20
-1.19149e-19
-4.6105e-18
9.93972e-19
-5.07243e-19
2.85805e-18
1.55205e-18
6.32667e-21
3.94731e-19
1.80826e-19
-1.37955e-18
-4.10823e-18
3.90767e-19
-2.03852e-19
-1.02767e-20
-1.44205e-19
-4.37135e-20
7.89711e-19
4.31651e-18
2.45757e-18
-4.68398e-19
2.67117e-18
-1.54938e-19
3.66005e-19
-1.76e-19
9.56569e-19
6.36442e-19
-9.47179e-19
-9.89211e-19
1.32468e-19
5.40171e-19
-3.41694e-20
1.93576e-20
-2.84953e-19
-1.00954e-18
1.15499e-18
1.54676e-18
6.20612e-19
1.18489e-20
1.06129e-18
-2.27081e-18
3.92094e-18
-7.88188e-19
6.36217e-19
-7.09581e-19
-1.4408e-18
-1.54917e-18
-2.24825e-18
6.68667e-18
2.42815e-18
4.3691e-18
-1.15359e-17
-1.97537e-18
1.23697e-18
-7.04032e-20
-1.58502e-19
7.66067e-19
1.98305e-19
2.59636e-19
-1.07935e-18
-3.95029e-18
-7.69931e-18
-5.31947e-19
-0
4.63907e-19
-2.77979e-20
-2.73244e-18
3.34914e-18
1.12117e-18
-9.33467e-19
3.56232e-19
-0
-0
1.83529e-19
-4.57513e-19
5.61414e-20
-1.92084e-19
2.98181e-19
4.1695e-20
3.32468e-19
-8.91889e-19
-5.02495e-19
-2.54028e-20
-4.80288e-19
-9.68018e-19
1.3479e-20
-0
-0
-1.05184e-17
-4.19344e-18
-3.05479e-19
4.27208e-18
-7.76604e-18
-1.95104e-18
-6.2199e-19
-1.08108e-18
3.09193e-18
3.00908e-19
-4.66625e-20
-7.74292e-19
-5.503e-18
3.67322e-19
-2.88673e-19
1.00354e-19
1.92803e-20
-3.7947e-19
-6.97532e-19
1.59325e-19
2.1059e-18
1.11924e-18
-1.56076e-19
6.47402e-20
6.72403e-20
2.30785e-19
-4.18523e-19
-0
-6.42368e-20
3.24145e-19
-2.17562e-19
-4.45174e-19
1.21364e-19
1.3723e-19
6.24956e-19
3.52734e-20
-9.49241e-19
5.20513e-20
-5.397e-19
-9.34374e-19
-5.61782e-19
-8.09586e-18
-1.86069e-18
2.07418e-18
5.6602e-18
-3.70197e-18
4.72703e-18
-1.94347e-19
-3.63081e-19
-2.11828e-19
1.28106e-19
4.46533e-20
9.17199e-20
9.80119e-19
-4.01301e-21
3.99314e-19
-2.8497e-18
-2.12959e-18
-4.86474e-19
7.29726e-19
-2.75824e-18
-2.52464e-18
-2.52161e-20
1.01191e-20
-1.58318e-19
-3.72872e-19
-1.30456e-19
-7.42186e-20
4.21066e-19
-3.26177e-19
1.31448e-19
6.59668e-19
6.35601e-19
8.11209e-20
2.43733e-19
-9.87407e-20
-2.9862e-19
-0
3.68938e-19
-5.6545e-19
-6.11901e-20
-2.314e-18
-2.63501e-18
2.23832e-20
-1.89309e-18
-8.22078e-19
-2.61764e-18
1.63705e-19
8.07874e-20
-2.67371e-19
-0
-1.23777e-18
7.16963e-19
-3.26484e-19
-4.58608e-19
-0
-1.45932e-18
7.3549e-19
2.37507e-20
2.27171e-19
-1.99745e-19
4.37186e-20
1.86197e-18
-6.34204e-22
-8.8229e-19
-2.64563e-19
-2.08936e-19
1.17775e-19
5.56406e-19
-3.89313e-19
2.81723e-20
2.36095e-19
-6.58256e-20
-1.25637e-18
-4.10208e-19
1.45752e-19
2.43433e-19
-3.44512e-19
-2.26703e-19
-4.67815e-19
-1.7467e-20
1.83823e-19
-1.07297e-19
7.21547e-19
-0
1.41667e-18
2.25526e-18
-1.06919e-20
-5.69144e-19
-6.26044e-20
-1.28565e-18
-1.44788e-18
-1.23917e-18
-5.17008e-19
-6.41237e-18
3.48096e-19
1.98534e-19
-0
-2.33463e-19
7.03793e-19
-5.95111e-19
1.80067e-19
-2.09164e-20
-1.14991e-19
-1.96195e-19
2.29981e-19
2.72417e-19
4.70731e-19
1.68569e-19
1.52104e-18
-1.20431e-18
-1.44062e-18
-1.37336e-18
-2.74683e-18
1.06303e-18
-7.59667e-19
5.37925e-19
5.05702e-20
-9.13408e-20
-5.02715e-20
1.42305e-18
7.46267e-19
-3.37318e-19
4.11331e-19
3.24592e-20
-5.71512e-20
8.98156e-22
-5.33679e-20
2.77493e-20
-4.72444e-20
-2.08139e-20
4.66406e-20
2.73443e-19
2.19985e-18
2.71671e-18
-1.61074e-18
-3.6588e-18
-4.97405e-19
-0
-7.24996e-19
-1.86023e-18
-1.28386e-18
2.08672e-18
1.36572e-19
-9.693e-19
3.37914e-20
8.4248e-20
3.33606e-19
1.30186e-18
1.28092e-18
-5.32236e-19
2.89442e-19
-0
-2.95367e-19
6.52014e-19
8.67652e-19
3.49022e-19
3.88976e-19
-2.03974e-19
6.05288e-20
2.00023e-19
-1.18582e-18
-1.47161e-18
8.39838e-19
2.63558e-19
-0
-4.40614e-19
-1.92357e-05
0.00013423
0.000233483
0.000180218
0.000122494
8.95856e-05
-0.000119134
-0.00032531
-0.00040595
-0.000343633
-0.00023696
-0.000168267
-0.00013359
3.79976e-05
0.000259193
0.000393527
0.000438214
0.000418647
0.000181264
-0.000314711
-0.000738658
-0.000642515
-0.00016619
0.000573012
0.000829683
0.000905782
0.000865914
0.00085771
0.000617793
0.000249049
-1.26023e-05
-1.09085e-05
0.000154828
0.000381742
0.000177422
-1.97649e-05
5.54764e-05
-2.46538e-05
-1.44159e-05
-4.4079e-05
0.00022078
0.000430405
0.000366258
-9.2722e-05
-0.000543438
-0.000779239
-0.000930741
-0.000917497
-0.000436685
-0.000167967
-0.000106545
-0.000539487
-0.00115893
-0.00160219
-0.00218161
-0.00324755
-0.00433714
-0.00486003
-0.00459724
-0.00344374
-0.00184137
-0.000508324
-0.000124815
0.000241845
-0.000633603
-0.00118514
-0.000215191
0.000899246
2.25893e-05
-0.00235814
-0.00429386
-0.00438897
-0.00336023
-0.00124335
-8.06926e-05
7.59969e-05
0.00140156
0.000662576
0.0002532
0.000168937
0.00014288
0.000241908
0.000154917
-0.000157909
-0.000438228
-0.000565998
-0.000507951
-0.000344939
9.82807e-05
0.000339594
0.000355189
4.91748e-05
-0.000400735
-0.000846236
-0.00140153
-0.00212674
-0.00271349
-0.00288416
-0.00249023
-0.00154015
-0.000248911
0.000939174
0.000718966
-0.000225847
-0.00134845
-0.00176308
-0.000863371
0.000274912
0.000117816
-0.00124443
-0.00253298
-0.00278985
-0.00219945
-0.00104147
0.000143072
0.000681205
0.00124203
0.000976934
0.00023415
7.00834e-05
7.68657e-06
2.22814e-05
1.56742e-05
-1.34305e-05
-2.88239e-05
-4.36627e-05
-5.55463e-05
-4.5137e-05
2.86449e-05
8.77503e-05
7.29796e-05
2.08247e-05
-3.2914e-05
-8.10646e-05
-0.000145928
-0.000236135
-0.000298005
-0.000282635
-0.00020918
-5.51e-05
0.000135296
0.000437033
0.000260529
-5.14549e-05
-0.000264275
-0.000348297
-0.000139064
0.000198279
0.000251832
-3.96017e-05
-0.000322788
-0.000399294
-0.000303952
-0.000102191
0.000172032
0.000465269
0.000586193
0.000321047
8.52296e-05
8.88123e-06
-3.6738e-07
-1.38689e-05
-1.4653e-05
1.99036e-05
6.17346e-05
5.98213e-05
1.64988e-05
-1.04299e-05
1.31775e-05
2.99408e-05
-8.43446e-06
-2.21177e-05
7.04008e-06
5.75879e-05
0.000106152
0.000105682
5.61138e-05
3.04355e-05
3.40315e-06
3.26628e-05
0.000209049
0.000405378
0.000125238
2.09003e-05
0.000207692
0.000115018
9.01363e-06
3.41354e-05
7.15671e-05
2.45928e-05
-1.23142e-05
2.95477e-06
2.96092e-06
-5.33283e-07
1.38869e-05
0.000133564
0.000227621
1.17617e-05
-6.8124e-05
2.0072e-06
9.40112e-06
-7.19216e-06
-1.66649e-05
1.02608e-05
5.15347e-05
5.36683e-05
2.44857e-05
-4.39095e-06
1.69959e-05
3.07808e-05
-1.02667e-05
-4.04897e-05
-1.08506e-05
4.97868e-05
0.00010904
0.000108639
4.67421e-05
2.01483e-05
1.84653e-05
-1.87197e-06
0.000167376
0.000416115
0.000205223
-2.80833e-06
0.000238187
0.000143386
2.28156e-05
2.0021e-06
5.85619e-06
8.10661e-06
5.73854e-06
1.4338e-05
1.12258e-05
6.34852e-07
-3.13803e-06
4.42425e-05
0.000132651
3.14002e-07
-0.000128516
-3.88977e-05
-2.08632e-06
4.69944e-06
-7.93435e-06
-1.13839e-06
1.97735e-05
2.23689e-05
1.31615e-05
-3.6235e-07
1.40598e-05
3.41991e-05
5.43685e-06
-2.60182e-05
-1.64634e-05
2.75821e-05
6.58598e-05
5.5588e-05
1.38172e-05
-3.38115e-06
1.20054e-05
-5.51245e-06
5.97659e-05
0.000284249
0.000222329
-7.19797e-06
0.000114018
4.41274e-05
1.85722e-06
2.66414e-07
-2.6132e-07
6.35577e-07
5.61086e-06
6.51451e-06
1.84839e-06
-3.23674e-06
-5.93796e-06
1.13564e-05
6.29607e-05
4.26258e-05
-6.73754e-05
-5.7984e-05
-1.40622e-05
3.67549e-06
1.27536e-06
-1.97275e-06
3.27418e-06
4.79949e-06
3.47707e-06
1.4505e-06
3.23725e-06
2.84035e-05
1.4511e-05
-9.04193e-06
-8.45469e-06
1.61919e-05
3.3709e-05
2.19761e-05
3.96244e-06
-5.38033e-06
3.93022e-06
8.24457e-07
1.01451e-05
0.000145133
0.000157113
-2.65419e-06
2.9816e-05
4.68693e-06
-1.62572e-06
-3.435e-07
2.06434e-07
1.17164e-07
5.23027e-07
7.27422e-07
-7.40513e-08
-1.97665e-06
-2.34464e-06
-1.72236e-06
1.711e-05
2.7023e-05
-8.84131e-06
-3.06288e-05
-9.56845e-06
-2.37652e-06
1.34426e-06
-3.94085e-07
-3.51811e-08
8.37429e-07
5.11717e-07
8.30761e-07
-2.24262e-07
1.07427e-05
1.71697e-05
-1.17783e-06
-2.12811e-06
8.31683e-06
1.26863e-05
6.47064e-06
1.20653e-06
-2.42238e-06
2.68906e-07
8.77768e-07
7.29167e-07
6.43749e-05
8.86235e-05
-1.32961e-06
3.1382e-06
-8.47029e-07
-6.55791e-07
-3.00811e-07
-5.89359e-09
-1.13806e-09
-7.17189e-08
-1.73401e-07
-2.42554e-07
-1.72732e-07
-8.76608e-07
-8.87939e-07
1.7173e-06
7.42254e-06
2.4395e-06
-6.73293e-06
-2.35537e-06
-3.37158e-06
-9.07038e-07
2.51086e-07
5.99713e-07
6.02031e-07
1.96205e-07
-1.58397e-07
1.20844e-07
1.05278e-06
7.9869e-06
2.18674e-06
-5.51436e-08
4.03379e-06
3.50316e-06
9.14464e-07
-4.04816e-09
-4.82941e-07
-1.99535e-07
-2.90892e-08
-8.51611e-07
2.33437e-05
4.08427e-05
-1.21213e-06
-2.59972e-06
-8.7494e-07
-1.90663e-07
-9.72504e-08
-2.08626e-08
-1.61189e-09
1.34656e-08
3.31578e-08
-6.83816e-08
9.31519e-08
-2.08131e-07
-2.99245e-08
-1.84423e-07
1.09046e-06
9.33091e-07
-3.73815e-07
-1.01257e-07
-8.23007e-07
-7.38201e-07
3.32525e-07
5.17616e-07
2.58683e-07
8.62683e-08
-4.379e-08
-2.17202e-08
-6.74066e-08
1.40787e-06
1.64332e-06
1.8126e-08
1.36802e-06
9.66755e-07
2.26455e-07
-9.64521e-08
-1.24557e-07
3.41234e-08
-1.22804e-07
-8.13315e-07
6.12917e-06
1.45721e-05
-6.3847e-07
-2.08024e-06
-1.67414e-07
4.52352e-08
-7.63795e-10
-1.68074e-09
-4.78023e-11
-4.59686e-11
5.81753e-09
1.96772e-09
2.01053e-08
-5.70697e-09
-7.8655e-09
-6.71356e-08
2.86658e-08
1.23645e-07
8.17598e-08
1.10035e-07
-5.20613e-07
-4.68569e-07
9.60543e-08
1.11658e-07
3.05879e-08
6.90692e-09
-5.16554e-09
-2.73984e-09
-1.41799e-08
9.22399e-08
5.14837e-07
9.95512e-08
3.16832e-07
3.60037e-07
6.25054e-08
1.84582e-09
-3.0175e-08
5.81905e-08
-1.30518e-08
-3.00732e-07
1.2437e-06
3.96983e-06
-1.8345e-07
-4.68656e-07
1.76765e-07
1.63725e-08
8.24006e-11
-3.96326e-12
-5.51944e-14
1.04201e-13
-2.37819e-12
-1.24094e-11
2.06873e-11
-1.44325e-11
-6.58355e-09
-2.25043e-09
-7.82822e-09
8.4228e-09
1.26016e-08
1.60432e-08
1.67804e-08
-2.61352e-08
6.30751e-09
9.13961e-10
4.56457e-11
3.40123e-12
1.62229e-11
-4.43372e-10
-2.28666e-09
7.81889e-09
5.95053e-08
5.31707e-08
5.37771e-09
8.42821e-09
1.18201e-08
3.04995e-11
-9.96694e-09
-8.16603e-10
5.37939e-10
-4.48443e-08
2.89603e-07
7.4061e-07
3.74166e-08
4.59584e-08
1.42466e-08
3.58248e-10
2.42014e-12
-1.05039e-13
1.32996e-15
3.14368e-15
-1.79317e-15
8.85374e-14
-1.45886e-13
-4.3579e-14
1.98408e-13
2.09864e-14
-9.18028e-13
1.55995e-11
2.23003e-09
-1.45777e-11
-8.79055e-11
3.3407e-11
9.80026e-11
7.91514e-12
1.91448e-13
-2.05895e-14
7.27371e-15
2.63558e-13
6.6099e-13
1.00605e-13
-2.52778e-12
-7.06242e-11
6.35235e-12
1.75871e-11
1.15753e-12
-6.79163e-13
1.29315e-11
-1.31104e-11
-7.65572e-12
-5.77022e-09
3.83653e-08
8.17573e-08
1.1833e-08
-9.33078e-09
3.57328e-11
1.69459e-12
1.73257e-14
-1.31037e-15
3.48156e-17
-2.89526e-17
9.96904e-17
-5.07169e-16
1.14759e-15
1.4929e-15
-2.72011e-15
-3.32995e-16
-6.3928e-15
1.36928e-13
-1.15927e-12
-5.99546e-14
-2.19544e-13
3.28943e-13
3.08685e-13
1.85041e-14
2.39563e-16
1.98711e-17
-9.84956e-18
1.38596e-15
-1.83217e-15
-1.49259e-15
5.35024e-15
-4.21537e-13
-2.45157e-13
8.83647e-14
4.28359e-15
3.38061e-15
-7.82349e-14
1.47226e-13
1.03734e-13
-1.32381e-12
4.20076e-13
-1.81021e-11
-4.9974e-11
-6.39878e-12
6.19632e-13
5.56784e-14
9.33884e-16
-3.27706e-18
3.53894e-19
5.35326e-18
-8.88791e-20
-9.96101e-19
-4.96409e-18
-9.63394e-18
1.54598e-17
-8.58447e-18
1.11169e-17
5.01281e-16
-5.58796e-15
-2.19607e-16
-6.6805e-16
9.58503e-16
4.10508e-16
1.67456e-17
2.10564e-19
-0
-4.22724e-19
4.70042e-19
4.10423e-18
1.11167e-18
2.50176e-16
-3.28623e-15
-2.41489e-15
3.39445e-16
1.67747e-17
-4.10989e-18
9.20067e-17
-4.00439e-16
-3.02385e-16
5.7062e-15
1.30198e-15
-8.67753e-14
-4.85963e-13
1.07739e-13
3.07588e-14
1.84499e-15
4.44066e-17
-9.62444e-19
2.19781e-18
-1.81279e-18
8.35689e-18
4.64655e-18
-6.97278e-19
-3.88251e-19
-1.03788e-17
7.04683e-18
1.26659e-18
2.93437e-18
-3.53926e-17
-1.32916e-18
-1.10911e-19
4.52816e-18
2.25556e-18
-6.37331e-19
-1.58129e-19
-1.47438e-19
-1.42875e-19
-9.62952e-21
1.3182e-19
-4.54533e-18
5.02901e-18
-3.86347e-17
-2.49635e-17
5.05289e-18
-5.18835e-19
-3.31915e-19
2.80156e-19
3.60494e-19
3.05952e-19
-8.63323e-18
3.13433e-18
-1.07042e-16
-8.94595e-16
2.18553e-15
4.18672e-16
1.72101e-17
3.05484e-18
-2.21372e-18
1.47315e-19
-1.66378e-18
-5.44809e-18
-0
-2.06297e-18
-2.86699e-19
-5.43082e-18
-1.13073e-17
6.57315e-19
-2.87902e-19
2.8135e-18
1.0448e-18
3.53806e-20
4.72187e-19
-0
-9.5592e-20
4.5951e-21
2.03083e-18
6.03539e-19
-2.9769e-19
-7.91691e-19
2.15144e-18
-1.97658e-17
1.56957e-17
1.29127e-18
4.72608e-18
-7.95879e-19
-6.99235e-20
-4.07173e-19
-1.24058e-18
-9.42528e-20
-2.64357e-19
-2.18306e-19
-9.46481e-19
-5.1855e-18
7.66756e-18
-1.67621e-18
-1.93235e-18
5.42592e-19
1.70265e-18
-1.47244e-18
-0
-0
-1.20238e-18
-1.55009e-18
-3.93518e-19
8.13552e-18
-2.25357e-18
4.50417e-18
2.43001e-18
3.81929e-20
-1.24274e-18
-1.56089e-18
-0
3.91615e-19
-5.3147e-19
2.85146e-19
-8.22513e-19
-1.76057e-18
1.08979e-19
-7.34472e-20
8.50049e-19
1.76235e-18
5.02727e-18
-2.82455e-19
-6.30511e-18
-0
3.85495e-19
-8.62625e-19
-6.71162e-19
1.12045e-20
4.4903e-20
5.34125e-19
9.20784e-19
5.08991e-19
-2.28458e-19
-5.02501e-19
1.72349e-19
9.69774e-19
-1.50551e-20
-0
4.12407e-18
3.61599e-19
5.10296e-18
2.29328e-18
-2.07474e-19
1.5239e-18
-1.29782e-18
-6.08094e-18
-0
-0
-2.2198e-18
-2.67324e-18
9.04853e-19
2.87021e-19
-1.57808e-19
-1.71068e-18
-0
1.2587e-18
3.57088e-19
-0
2.30892e-18
-0
6.56137e-19
4.95768e-19
-1.09768e-18
-1.22921e-18
-4.77795e-20
-3.77813e-20
4.47691e-20
3.13462e-19
1.54624e-20
5.63882e-19
5.44609e-21
-7.72416e-20
8.70711e-19
-2.14349e-18
6.79336e-19
1.72687e-18
9.54156e-21
4.79165e-19
4.83617e-19
-0
-8.90113e-18
-1.51569e-17
2.1137e-17
-0
5.87828e-19
-0
-7.27138e-19
1.43499e-18
-2.19755e-18
-8.44587e-19
8.55133e-19
3.22256e-19
-3.06378e-19
-1.631e-18
-2.75503e-18
-4.34624e-20
-1.34658e-18
1.48357e-19
4.91571e-19
3.5084e-18
-6.14301e-18
-1.48368e-19
-1.78764e-18
-1.61388e-18
-4.24851e-19
-4.69058e-19
1.67984e-20
-2.86138e-19
1.11934e-18
-7.0181e-19
2.62037e-20
1.0662e-18
1.25941e-18
-9.18229e-19
2.18127e-20
6.18372e-20
4.50788e-20
1.34448e-19
1.23231e-19
-1.90939e-19
-6.98569e-19
1.13533e-17
1.99962e-17
-2.30874e-18
-3.84467e-18
5.28814e-18
-1.80678e-18
-2.0719e-18
-1.84382e-19
3.89553e-19
-3.8748e-20
-5.10289e-20
-7.5471e-20
-1.20981e-19
7.41592e-19
7.3149e-20
3.83494e-19
9.45069e-19
-3.14988e-19
1.51469e-19
-8.65326e-19
-3.37204e-19
-3.18474e-19
-8.1774e-19
-0
7.25085e-21
-7.27099e-21
5.42974e-20
-4.56252e-19
8.64762e-19
-1.79727e-19
-4.18498e-19
4.4521e-19
4.84197e-19
1.06344e-18
2.65765e-19
1.40116e-19
-5.78139e-19
2.03948e-20
4.78919e-19
-1.07947e-19
-3.47619e-18
-4.01375e-18
-2.97192e-19
7.181e-19
-6.94659e-18
1.43274e-17
4.37003e-18
-3.09731e-19
1.79447e-20
1.24998e-18
-2.25023e-19
-1.57328e-18
-1.01524e-19
-1.53073e-18
8.31103e-20
3.92581e-19
-0
8.39283e-19
2.98185e-20
-1.09838e-18
7.11401e-19
-3.29981e-19
7.60934e-19
2.99857e-19
-5.79338e-19
-1.33791e-18
-1.50551e-18
-1.33431e-19
8.62843e-19
-9.12951e-21
3.95516e-18
1.3609e-18
-1.14631e-18
-3.35121e-19
1.01574e-19
-2.05685e-19
1.0794e-19
-1.19755e-19
-9.87971e-21
9.57014e-20
-4.4071e-20
1.56612e-20
3.29894e-19
6.75937e-20
1.43144e-18
-9.51727e-19
2.07419e-18
-1.31409e-19
9.42594e-20
9.50239e-19
1.22825e-18
-5.76478e-19
2.59615e-19
3.68567e-20
2.74334e-20
2.1597e-18
-7.71788e-19
-2.50442e-18
1.81211e-18
-2.00858e-18
1.81323e-20
7.28978e-20
1.49466e-19
-2.27426e-20
-2.37655e-18
7.81638e-21
-1.5195e-18
1.02301e-18
-6.63246e-19
7.29711e-19
1.44993e-19
8.15992e-19
2.58284e-19
-2.9846e-19
-3.35056e-19
9.16859e-20
-1.10443e-19
2.35528e-19
2.23714e-19
-1.7916e-18
4.24511e-19
4.49869e-19
-0
5.49802e-19
9.50273e-20
-1.00425e-19
-5.8698e-19
1.22652e-18
9.36198e-19
3.7103e-20
-1.77805e-20
-6.07053e-19
3.95367e-19
-1.44839e-18
5.19935e-19
1.27877e-18
9.29458e-19
1.32084e-19
-1.86187e-18
-9.29576e-19
-4.27131e-19
-1.95202e-18
-2.03336e-18
-2.1971e-18
6.97289e-19
-1.23492e-19
8.23594e-20
4.92592e-19
-2.57191e-19
-2.95851e-20
1.42386e-19
-0
-4.05517e-19
-4.9399e-20
-4.97047e-20
-2.42685e-18
-6.85002e-19
7.60689e-19
-2.04272e-20
4.91031e-20
-1.23118e-18
-7.75065e-21
-1.36994e-18
1.02576e-18
3.10672e-19
-6.69172e-19
-2.54751e-19
5.82557e-05
0.000244435
9.92451e-05
-8.31644e-05
-0.000154882
-0.000102708
-2.95338e-05
9.1374e-05
5.03765e-05
-0.00015028
-0.000259055
-0.000188368
3.71046e-05
0.000229128
0.000155861
0.00013072
0.000120868
7.96098e-05
-3.86059e-05
6.24269e-05
0.000192033
-4.00821e-05
-4.65729e-05
0.000365908
0.000658771
0.000674218
0.000570766
0.000465095
0.000257545
-2.18349e-05
-0.000291024
-0.000298028
-0.000107098
7.23736e-05
5.94157e-05
6.05879e-05
6.64725e-05
-0.000165233
-0.000398902
-0.0003375
0.0010445
0.000932879
4.59785e-05
-0.000448087
-0.0002858
3.59267e-05
0.000207738
0.000571389
0.000627341
4.95445e-05
-0.000574773
-0.000664769
-0.000381393
-0.000259151
-0.00131186
-0.00271445
-0.00403972
-0.00545055
-0.00672831
-0.00480037
0.000444679
0.00207621
0.00112614
0.00106558
0.00153196
0.00170875
0.00142645
0.000707478
-0.000778693
-0.0024324
-0.00346685
-0.0033447
-0.00241559
-0.00133063
-0.000850751
-0.000713305
-0.000452437
-0.00100992
-0.000940034
8.24336e-05
0.000519404
0.000520796
0.000115142
-6.56901e-05
7.98324e-05
0.00022622
0.000227156
0.000283665
0.000352763
0.000228621
1.94481e-05
-0.000142282
-0.000244081
-0.00045795
-0.001049
-0.00174717
-0.0022677
-0.00276962
-0.00341716
-0.00284481
-4.40019e-06
0.00187794
0.00158741
0.000563999
0.000124491
0.000188072
0.000359698
0.000272921
-0.000463789
-0.00143884
-0.00200248
-0.00185056
-0.00118331
-0.000394574
0.000159993
0.000264091
0.000222559
-0.00014007
-0.000329091
0.000127676
7.51374e-05
5.38593e-05
5.42187e-06
-6.14599e-06
2.64847e-05
5.00197e-05
3.51075e-05
1.49171e-05
1.95131e-05
1.55861e-05
2.46487e-06
-2.98275e-05
-5.97482e-05
-0.000100808
-0.000172259
-0.000233451
-0.000256996
-0.00027054
-0.000328684
-0.000290815
0.000172723
0.000734748
0.000695968
0.000179189
-7.12422e-05
-0.00011602
-5.53344e-05
3.70282e-05
-3.51527e-05
-0.00019015
-0.000282417
-0.000243346
-8.04024e-05
0.000125533
0.000301141
0.00036709
0.000291769
0.000109272
-8.68665e-06
5.96463e-05
6.61564e-05
-1.59333e-05
-1.99367e-06
1.07054e-05
7.54145e-06
1.14453e-05
1.1292e-05
2.44545e-06
-6.19831e-06
-6.06837e-06
-3.83865e-06
5.32484e-06
2.60552e-05
4.24384e-05
5.06619e-05
4.70949e-05
2.6148e-05
1.62116e-05
1.65796e-05
-2.65659e-06
6.16829e-05
0.000368912
0.000461483
5.49477e-05
8.93805e-06
5.65678e-05
-1.2391e-06
-2.11234e-07
3.05507e-06
3.29149e-06
1.49165e-05
8.36488e-06
5.54351e-06
2.72323e-05
7.41098e-05
9.98991e-05
4.93814e-05
-2.09207e-05
-2.58336e-05
9.37023e-05
0.000145226
5.75487e-06
-4.43294e-06
9.08257e-06
2.44881e-06
2.28236e-06
5.16337e-06
4.24812e-06
1.5959e-06
-4.81852e-07
-3.51076e-06
8.06686e-06
4.38138e-05
7.56277e-05
8.1087e-05
6.09264e-05
2.52717e-05
5.70845e-06
1.55595e-05
1.25305e-05
1.33575e-05
0.000155089
0.000397544
8.69413e-05
-5.47869e-06
0.000119422
5.39229e-05
3.02253e-06
-6.40753e-06
-3.76558e-06
9.252e-06
1.15256e-05
6.04724e-06
2.15231e-06
1.91411e-05
4.4978e-05
1.08703e-05
-5.75609e-05
-6.51161e-05
5.8054e-05
0.000156219
4.83816e-05
-5.29993e-06
3.08181e-06
3.92876e-06
4.50073e-06
3.6467e-06
1.47067e-06
2.86446e-06
3.88214e-06
1.55061e-06
7.7951e-06
3.18788e-05
5.60233e-05
5.39152e-05
2.89512e-05
9.70858e-06
1.07518e-06
-2.06435e-06
7.26086e-06
1.34985e-06
4.11183e-05
0.00023858
0.000137454
-1.48764e-05
6.71939e-05
4.13046e-05
5.28224e-06
-2.87386e-06
-2.01644e-06
1.71626e-06
1.83014e-06
1.38565e-06
-9.72504e-07
2.04318e-06
1.95066e-05
2.28506e-05
-1.7988e-05
-4.31499e-05
9.50735e-06
9.47515e-05
6.44896e-05
1.00104e-06
-1.36308e-06
1.96391e-06
4.08955e-06
3.27914e-06
1.67632e-07
1.62695e-07
2.42699e-06
3.95464e-06
6.49491e-06
1.4624e-05
2.23894e-05
1.91274e-05
7.4032e-06
2.3536e-06
2.6375e-06
-1.82351e-06
2.04738e-06
1.17191e-06
9.42199e-06
9.9382e-05
8.6937e-05
-2.5713e-06
1.86589e-05
1.33968e-05
2.15147e-06
-7.60812e-07
-5.71468e-07
4.36613e-07
5.28373e-07
7.19199e-07
-9.92571e-08
-1.14999e-06
2.32496e-06
9.72147e-06
1.8091e-06
-1.15099e-05
4.4035e-06
4.06826e-05
3.83796e-05
5.44673e-06
-1.26452e-06
2.71192e-07
1.97316e-06
1.92445e-06
5.23909e-07
1.38813e-07
4.11503e-07
2.02811e-06
4.97288e-06
7.46858e-06
6.41318e-06
2.92203e-06
4.27347e-07
-5.55542e-08
9.45933e-07
-5.87304e-07
4.53017e-07
7.09936e-08
1.84737e-06
3.67235e-05
3.52461e-05
1.29789e-06
3.04098e-06
2.27553e-06
2.13107e-07
-4.02194e-07
-5.51899e-07
-3.88812e-07
-1.14076e-07
2.42178e-07
5.27201e-07
7.29193e-08
-6.28947e-09
1.12977e-06
1.32338e-06
-9.91832e-07
7.07018e-06
1.44011e-05
1.00175e-05
2.31456e-06
-7.82428e-08
4.81903e-07
1.41077e-06
1.21487e-06
4.83406e-07
3.85137e-07
2.6746e-07
2.679e-07
1.73717e-06
3.45439e-06
2.00726e-06
2.86289e-07
8.10539e-09
-6.40414e-08
2.65557e-07
-3.99062e-07
1.52393e-07
-2.43829e-07
6.36472e-07
1.34903e-05
1.23663e-05
7.86034e-07
1.12451e-07
1.37483e-07
-1.24148e-07
-2.01664e-07
-1.77065e-07
-1.06644e-07
-3.71824e-08
1.82962e-08
1.02394e-07
3.90526e-08
8.17437e-08