/*--------------------------------*- C++ -*----------------------------------*\
| =========                 |                                                 |
| \\      /  F ield         | OpenFOAM: The Open Source CFD Toolbox           |
|  \\    /   O peration     | Version:  5.0                                   |
|   \\  /    A nd           | Web:      www.OpenFOAM.org                      |
|    \\/     M anipulation  |                                                 |
\*---------------------------------------------------------------------------*/
FoamFile
{
    version     2.0;
    format      ascii;
    class       volScalarField;
    location    "50.4676134421789371";
    object      Pvt;
}
// * * * * * * * * * * * * * * * * * * * * * * * * * * * * * * * * * * * * * //

dimensions      [0 1 -2 1 0 0 0];

internalField   nonuniform List<scalar> 
60000
(
4.33402e-06
6.83683e-06
5.75553e-06
1.46407e-06
-8.61871e-07
-6.65864e-07
5.66867e-07
1.51343e-06
2.20778e-07
-1.27325e-06
-4.02708e-07
1.6756e-06
1.52739e-06
1.20255e-06
1.4946e-06
1.39159e-06
7.91276e-07
6.30491e-06
1.42938e-05
1.50235e-05
1.24013e-05
7.19832e-06
4.38283e-06
-2.3173e-06
-5.0048e-06
2.82263e-06
3.22463e-06
-1.57729e-06
-1.09165e-06
-1.85603e-07
-1.29719e-07
1.64012e-06
4.08897e-06
6.24325e-06
9.2275e-06
9.02681e-06
2.41893e-06
-7.13601e-07
-1.49843e-07
1.57779e-06
6.34203e-05
5.47191e-05
1.77382e-05
1.00184e-06
3.16732e-06
3.95616e-06
1.17252e-05
6.06187e-06
-1.70121e-05
-1.31706e-05
2.35602e-05
3.71807e-05
7.07924e-06
-3.27352e-06
1.25362e-05
3.88726e-05
8.94261e-05
0.000150343
0.000158533
0.000137044
0.000113526
3.92474e-05
-6.88012e-05
-0.000135832
-1.24016e-05
0.000251053
0.000350046
0.000247667
0.000120589
3.86737e-05
2.22626e-05
4.62636e-05
6.83501e-05
8.71088e-05
8.61967e-05
4.70038e-05
1.41645e-05
-4.30605e-06
1.76439e-05
4.59281e-05
5.47641e-05
4.88912e-05
1.1766e-05
-5.25492e-06
3.87471e-06
9.47855e-06
1.38911e-05
7.51773e-06
-8.5067e-06
-1.42217e-06
3.5381e-05
5.30521e-05
2.20046e-05
-2.47434e-06
9.97523e-06
3.90177e-05
9.18794e-05
0.000160309
0.000155793
0.000107211
0.000128322
6.71748e-05
-7.76961e-05
-0.000106245
8.76272e-05
0.000320619
0.000329904
0.000185929
7.14471e-05
2.06055e-05
1.07729e-05
3.34079e-05
5.1977e-05
6.32307e-05
6.62056e-05
3.46034e-05
6.43738e-06
1.05254e-05
2.17537e-05
3.93455e-05
1.31203e-05
1.0763e-05
2.5893e-06
-1.49008e-06
-8.5167e-07
-3.4259e-08
2.47237e-06
2.91881e-06
-7.43548e-07
1.67925e-06
1.29841e-05
1.59989e-05
6.50814e-06
5.98479e-07
5.41853e-07
-8.72291e-07
4.7774e-07
2.30097e-05
5.74573e-05
1.84312e-05
8.29765e-07
4.21494e-06
-1.74058e-05
1.01916e-05
7.41113e-05
9.94884e-05
5.86686e-05
2.59933e-06
-3.74958e-05
-4.1199e-05
-1.43972e-05
7.45185e-06
1.36297e-05
1.44683e-05
1.61427e-05
8.26901e-06
1.39988e-06
4.15484e-06
5.70003e-06
1.02521e-05
-7.83862e-07
-8.72865e-06
-3.81283e-06
3.70312e-08
-2.61714e-06
-3.78126e-06
-3.33269e-06
-3.62076e-07
6.42401e-08
6.0959e-08
4.75999e-06
-1.50376e-06
-1.18241e-05
-1.78756e-06
-5.74443e-06
-2.28968e-05
-3.44937e-05
-1.94076e-05
3.29674e-05
-1.49725e-05
-0.000127649
-7.9877e-05
-1.77119e-06
2.64845e-05
-7.05247e-06
-1.87826e-05
-4.44144e-06
-2.04855e-07
-2.6047e-05
-5.26273e-05
-2.50988e-05
-6.49779e-07
-4.91024e-07
-1.99925e-06
1.2132e-06
1.88798e-07
-7.27473e-07
-1.9738e-06
-6.63262e-06
-1.06548e-06
-9.35498e-07
-1.02722e-05
-8.91198e-06
-6.60539e-07
-1.89384e-06
-2.83833e-06
-3.33064e-06
-2.45027e-06
-5.58341e-07
-4.86123e-07
1.22227e-06
-1.72196e-06
-2.30749e-05
-1.19369e-05
-1.55407e-06
-2.10722e-05
-3.21029e-05
-2.31028e-05
1.52477e-05
-2.18061e-05
-0.000200722
-0.000156024
-1.54882e-05
1.74112e-06
-5.27588e-05
-4.03856e-05
-8.08308e-06
9.80715e-07
-1.18621e-06
-2.73522e-05
-2.89161e-05
-5.91346e-06
-6.91369e-07
-2.54526e-06
-1.50249e-06
-4.76447e-07
-8.42141e-07
-2.58135e-07
-6.93863e-06
-5.98921e-06
-9.29194e-07
-2.61435e-06
-5.57763e-06
-1.38121e-06
-6.90707e-07
-1.00954e-06
-1.2554e-06
-1.8656e-06
-9.34505e-07
-2.30536e-07
8.09359e-08
1.18481e-06
-1.51903e-05
-1.72339e-05
3.60952e-07
-9.67569e-06
-1.51828e-05
-1.07194e-05
2.90896e-06
-3.0828e-05
-0.000199156
-0.000164683
-2.31955e-05
-3.53778e-05
-5.70276e-05
-2.06662e-05
-3.45817e-06
-8.92627e-08
1.77495e-06
-7.17388e-07
-9.31685e-06
-7.88662e-06
-2.32751e-06
-2.27593e-07
-7.397e-08
1.83264e-07
-3.00091e-08
6.57676e-07
-8.83219e-07
-2.78299e-06
-3.02603e-07
-2.51848e-07
-1.07992e-06
-5.48e-07
-1.916e-07
-1.61025e-07
-1.00255e-07
-4.39517e-07
-4.57873e-07
-6.46046e-08
1.01316e-07
1.0815e-06
-6.27706e-06
-1.06451e-05
2.93901e-07
-3.54326e-06
-4.98457e-06
-3.31754e-07
-4.35535e-07
-2.83817e-05
-0.00016022
-0.000129301
-1.7196e-05
-4.30088e-05
-3.618e-05
-6.84222e-06
-5.01697e-07
-1.10766e-07
-4.80152e-08
4.49815e-07
-1.86404e-07
-1.25844e-06
-2.39011e-06
-1.85935e-06
-3.52411e-07
2.56965e-07
2.16099e-07
2.59819e-07
4.0001e-07
1.18965e-08
1.16391e-07
-3.87027e-09
-1.28281e-07
-1.1889e-07
-8.17679e-08
-5.42648e-08
-1.12416e-09
-2.76974e-08
-7.45338e-08
-1.36668e-09
-3.54554e-09
2.47979e-08
-2.85596e-06
-4.40735e-06
7.16837e-07
-1.64451e-06
-4.5155e-06
8.12221e-07
1.27816e-09
-1.23615e-05
-9.99934e-05
-8.5933e-05
-6.17205e-06
-2.99977e-05
-2.04576e-05
-3.70188e-06
-4.16658e-08
2.40235e-08
-8.40057e-09
9.85852e-09
-1.35317e-08
-1.44528e-08
-1.97767e-07
-8.44354e-07
-8.57596e-07
-1.598e-07
1.17378e-07
8.65787e-08
1.36671e-07
2.3775e-07
8.6922e-08
4.02372e-08
-2.80438e-08
-3.92945e-08
-3.35227e-08
-1.53179e-08
-1.32936e-09
4.39084e-10
-1.37409e-08
5.05704e-09
-5.4296e-08
-3.20442e-07
-1.48987e-06
-1.33847e-06
5.49248e-07
-4.52314e-07
-3.08283e-06
-1.01749e-06
-2.55111e-08
-9.79873e-07
-4.35233e-05
-5.02235e-05
-8.50354e-07
-1.62939e-05
-1.03436e-05
-1.24798e-06
-6.10658e-08
2.38884e-10
-1.44776e-08
-3.31408e-10
3.00773e-09
-3.06606e-10
1.27428e-08
-3.97892e-08
-1.86355e-07
-1.74597e-07
-1.46759e-08
2.88697e-08
3.11747e-08
5.74136e-08
7.07414e-09
9.91559e-09
-7.44617e-09
-1.55947e-08
-8.69186e-09
-1.73834e-09
4.64108e-10
2.62801e-09
-2.70268e-09
1.6488e-10
-5.21303e-10
-1.69265e-07
-5.64038e-07
-2.86344e-07
1.59414e-07
5.22466e-08
-7.02336e-07
-7.83125e-07
2.65555e-08
6.81943e-07
-1.11189e-05
-2.3495e-05
-2.54274e-07
-6.20081e-06
-3.79513e-06
-3.69695e-07
9.15054e-09
-4.20169e-10
-2.91703e-11
8.1818e-11
8.83406e-11
-5.75842e-11
9.09343e-11
1.49075e-09
-4.37439e-09
-1.93352e-08
-1.71889e-08
-2.05109e-09
-8.00965e-10
-2.78146e-09
-2.08903e-09
1.28929e-09
-8.76191e-10
-1.37942e-09
1.24441e-11
8.58963e-13
-1.83468e-12
5.52856e-11
3.21243e-10
-5.14167e-10
3.16305e-09
-3.73939e-08
-1.49916e-07
-3.76678e-08
3.37077e-09
4.40812e-08
3.3673e-08
-1.56865e-07
2.35976e-08
7.91869e-08
-1.23417e-06
-7.21096e-06
-5.53792e-07
-1.31161e-06
-9.75885e-07
-1.29765e-07
-3.10967e-09
-3.93836e-12
1.2359e-13
1.1214e-12
-8.54797e-14
8.65629e-13
-6.36319e-13
-1.74458e-12
1.68226e-13
2.73929e-13
-2.79587e-12
-4.30208e-10
1.62087e-11
-1.5055e-09
3.32956e-12
1.30383e-11
4.77092e-12
1.26337e-12
3.09648e-13
1.63179e-14
1.02901e-16
1.7254e-13
-7.708e-12
7.37332e-11
8.42443e-10
-4.16993e-09
-4.46974e-08
-5.29771e-09
-1.90113e-09
-5.53423e-09
1.2422e-08
-1.2683e-09
-7.18424e-10
-5.10969e-08
3.80382e-08
-1.30829e-06
-2.91999e-07
-1.43523e-07
-2.00777e-07
-9.75682e-09
-8.15254e-13
-5.08684e-13
-3.32502e-14
-1.88657e-15
-1.82476e-15
-5.31283e-15
2.90725e-15
1.03506e-14
-4.1192e-16
-1.76767e-16
-6.71398e-15
1.45128e-13
1.69729e-13
-7.91207e-13
5.70138e-17
1.20475e-13
8.26584e-14
1.00489e-14
2.27124e-15
1.7662e-16
-4.27063e-17
5.22113e-17
1.39138e-14
-1.16025e-13
-3.64471e-13
4.9339e-09
-1.45023e-08
-2.91919e-09
-8.6655e-12
4.63632e-12
-1.1301e-12
-8.03912e-09
-5.13311e-09
-1.50605e-10
4.92994e-09
-1.00527e-07
-5.61924e-08
-2.82468e-09
-5.53004e-09
-3.29802e-12
2.31833e-15
2.74952e-16
7.38123e-17
-4.58674e-19
3.36556e-18
1.36461e-17
-5.384e-18
-4.69071e-17
1.76708e-18
-2.5078e-19
-2.51612e-18
1.4166e-16
1.18459e-15
-6.75489e-15
-1.29793e-16
4.87153e-16
5.48887e-16
-5.66363e-17
-1.68563e-18
1.57534e-18
5.2361e-19
-1.7872e-18
5.78785e-18
1.96828e-16
-2.85254e-15
-1.5143e-13
3.50034e-12
4.2516e-12
-4.35115e-14
6.99731e-14
3.0913e-14
-2.82106e-13
3.00033e-12
1.16649e-12
4.98264e-12
1.79238e-14
7.99202e-12
1.65273e-12
-7.07935e-13
-2.06627e-14
-1.15735e-17
1.06895e-17
1.16215e-20
-2.15756e-19
-1.0353e-18
9.82879e-21
1.1295e-18
-1.01197e-18
8.31596e-19
1.83932e-19
-1.73929e-19
-0
6.307e-18
-2.72342e-17
8.66443e-19
-8.83666e-19
1.15381e-18
2.34544e-19
5.423e-19
7.22103e-20
9.36837e-20
-7.14223e-19
4.0813e-20
-4.10595e-21
-1.30209e-18
-1.35937e-16
1.21635e-14
5.01157e-14
-3.22891e-16
4.65577e-16
1.52766e-16
3.14994e-16
-4.4488e-15
-6.05245e-16
-8.71939e-15
5.00597e-16
1.3988e-14
1.32705e-14
-2.78748e-15
-2.50496e-16
-5.63461e-18
-1.14384e-19
4.89567e-19
-8.11767e-19
-3.42156e-18
6.3663e-19
-8.21342e-20
-6.85554e-19
3.57464e-19
-2.90414e-19
3.03278e-19
3.33859e-20
-3.11364e-19
-3.23745e-19
-6.51748e-19
8.34878e-19
7.31189e-20
-1.50347e-19
9.91579e-21
8.49759e-19
-1.04822e-19
-1.06317e-20
5.18006e-20
-1.58573e-20
-5.26642e-20
-9.56404e-20
1.3571e-17
2.97017e-16
-3.51047e-17
-7.60118e-18
-2.56047e-19
-4.61932e-19
6.92074e-18
7.95945e-18
1.61811e-17
3.58679e-18
-8.74838e-18
3.3834e-17
2.69335e-18
-6.29156e-19
-4.19718e-19
-4.58787e-19
-4.95003e-19
4.28505e-19
-1.9754e-18
1.05958e-18
-2.55033e-19
-1.02672e-19
-2.56615e-20
5.99501e-20
1.90359e-18
-6.49809e-19
-2.1793e-19
-6.80268e-19
-6.1617e-19
1.92778e-19
-8.19542e-20
6.51072e-19
9.1342e-19
8.48011e-19
-2.37297e-19
5.49857e-20
5.91925e-20
-0
-1.40214e-20
1.29145e-19
5.55681e-19
2.3841e-18
-4.63016e-19
2.80342e-19
2.57115e-18
-1.12024e-18
8.8545e-20
-3.36129e-19
2.87471e-19
-2.85237e-19
1.27451e-19
4.18048e-19
5.35776e-19
-4.85997e-19
-3.23142e-20
-4.27031e-19
2.4524e-19
2.66417e-19
-7.12315e-19
-8.54239e-19
-5.49909e-20
-1.39465e-19
1.21056e-19
2.08387e-18
2.66866e-18
-5.6116e-19
4.48651e-20
-3.46558e-21
6.0075e-20
-1.74936e-19
2.09989e-19
5.40456e-19
4.56941e-19
3.5748e-19
-7.52731e-19
-2.19732e-20
-2.40301e-19
3.1117e-21
2.82602e-19
-3.66454e-20
1.66799e-19
2.68719e-19
-2.26663e-19
1.26052e-18
4.08874e-19
-1.08311e-19
1.82688e-19
1.4698e-18
6.93593e-19
-2.20422e-19
-2.08895e-19
-5.36718e-20
1.72596e-19
-5.21683e-19
8.67934e-19
4.32078e-20
-8.55744e-19
-8.86339e-19
1.54742e-19
1.89226e-18
-1.10805e-18
-4.38671e-19
-2.07747e-19
-3.12472e-18
6.35801e-18
4.85581e-19
-6.58549e-19
1.62261e-19
3.278e-20
-1.15907e-19
9.94636e-20
7.92452e-20
2.68656e-19
4.31605e-19
1.56683e-18
-1.93304e-20
-0
4.83416e-19
3.71214e-19
-4.20713e-19
-1.62391e-20
-8.23398e-20
-2.03668e-19
6.58271e-19
-0
-0
8.34326e-20
3.18958e-19
-4.40485e-20
5.9734e-20
-1.76194e-19
1.20459e-20
1.18552e-19
-1.14558e-21
7.00377e-19
3.56071e-19
2.13454e-18
1.69118e-18
1.20946e-19
-0
-0
-2.48101e-19
5.49768e-19
5.41221e-19
-2.01827e-18
2.77906e-18
5.21882e-19
1.19606e-19
-2.84805e-19
1.36528e-18
2.1679e-19
-7.86222e-20
5.95506e-19
1.67147e-18
-3.04455e-19
-2.61808e-20
-1.07359e-18
-2.72292e-19
9.71799e-20
-9.86348e-19
-5.30661e-19
-4.35541e-19
5.57411e-20
-2.52247e-20
2.30667e-20
-2.68404e-19
-3.03566e-19
3.98664e-19
-0
-1.78254e-20
-2.6928e-19
7.62289e-20
-2.75429e-20
-2.27419e-19
-1.60429e-20
4.37368e-20
5.06805e-20
6.8527e-19
-3.53728e-20
4.75639e-19
7.01188e-19
-2.1252e-20
7.10693e-19
-1.541e-19
-3.58657e-19
-2.46207e-19
-2.00257e-19
5.00235e-19
-7.97638e-20
4.93324e-19
3.50154e-19
-1.34042e-20
-1.33678e-20
-7.19836e-21
1.69406e-21
-6.79683e-20
-2.96843e-19
2.92483e-18
1.59361e-18
-4.81336e-19
-1.33926e-18
2.01814e-18
9.67495e-19
-2.17538e-20
-8.28114e-21
1.34036e-19
4.11335e-19
1.32765e-19
2.04284e-19
4.71756e-20
-3.54046e-19
-1.49922e-19
-1.88986e-19
1.47717e-19
-5.77633e-20
5.12817e-20
5.1292e-20
2.48857e-19
-0
-2.5105e-19
6.44507e-19
3.52769e-20
4.93256e-19
-3.94084e-20
-3.75863e-20
-5.56665e-19
-6.99306e-20
-6.32e-19
5.54832e-20
7.17077e-20
-7.0718e-20
-0
6.3724e-22
-2.06541e-20
1.64299e-19
1.28823e-20
-0
1.09799e-18
-9.5898e-19
-4.31415e-19
-7.89384e-19
4.73704e-19
7.59201e-20
-2.8465e-19
1.68341e-20
4.3743e-19
6.13424e-19
5.56379e-19
-2.18399e-19
-7.27071e-19
5.1603e-19
-5.10296e-20
3.69357e-19
-4.94688e-20
-4.19692e-19
-2.08728e-20
3.05814e-20
-1.03585e-19
3.13065e-19
-6.74156e-21
8.10748e-19
-2.37103e-19
6.80454e-20
-5.89712e-20
3.53105e-19
-0
4.73479e-19
7.67044e-19
1.97721e-21
-1.20626e-19
-9.63313e-20
7.42194e-21
-1.42111e-20
3.75459e-20
-7.61904e-19
-5.14159e-20
-9.9881e-20
-1.41072e-19
-0
6.03285e-20
-6.46474e-19
4.11939e-19
-4.35013e-20
1.37715e-19
1.7588e-19
-4.20899e-20
-7.58056e-21
4.57379e-20
9.96408e-20
1.87728e-20
-1.20399e-20
5.83078e-20
1.72127e-21
-2.57143e-20
2.45916e-19
-1.81219e-19
4.51458e-20
2.63826e-19
1.16729e-19
-6.15685e-20
-2.65582e-20
3.36392e-19
-7.12377e-20
-6.05008e-21
7.48485e-20
5.78072e-20
8.33727e-20
1.49313e-21
6.35052e-20
2.78567e-20
8.12596e-19
8.58253e-20
-2.5438e-19
5.15023e-20
2.21655e-19
1.70324e-19
2.7365e-19
2.58587e-18
3.88005e-19
-0
1.83984e-19
3.30587e-19
3.18004e-19
-7.99661e-19
-7.90547e-20
7.35537e-19
-3.31041e-20
-1.11133e-19
-5.05615e-19
-2.16538e-18
-2.15959e-18
7.96961e-19
-2.61176e-19
-0
-5.88201e-20
-1.57113e-19
-3.19895e-19
-1.54531e-20
2.00993e-20
-1.47021e-19
-2.68307e-20
4.23409e-19
-4.34359e-19
2.95708e-19
-4.79066e-19
-1.96002e-19
-0
2.55242e-19
-4.4273e-07
1.91321e-06
4.77598e-06
2.95342e-06
3.7906e-07
-1.30282e-06
-5.38465e-07
3.44957e-06
6.2336e-06
4.92289e-06
2.79044e-06
1.93032e-06
2.20557e-06
1.8733e-06
-7.00666e-07
-5.01403e-06
-7.89522e-06
-8.15343e-06
-6.35195e-06
3.25741e-08
8.82887e-06
9.8386e-06
6.61405e-06
5.88702e-06
6.70188e-06
7.61078e-06
8.54051e-06
9.02415e-06
5.74685e-06
1.10791e-06
-1.4717e-06
-2.7448e-06
-3.50793e-06
-4.32782e-06
3.02059e-07
8.46161e-06
2.7286e-06
8.60286e-07
9.7322e-07
1.36959e-07
1.45475e-05
2.7838e-05
1.70226e-05
-8.8726e-06
-1.84293e-05
-8.0418e-06
3.97165e-06
1.42538e-05
1.66272e-05
2.14002e-05
1.32662e-05
-7.66551e-06
-1.37808e-05
2.19141e-06
3.01498e-05
8.67886e-05
0.000173018
0.000236998
0.000218837
0.000163601
0.000141255
9.0546e-05
3.79601e-05
2.78885e-05
6.18335e-05
0.000113301
0.000137138
0.000113024
4.41772e-05
-6.95808e-06
1.35145e-05
5.53484e-05
7.83326e-05
6.13093e-05
3.15984e-05
1.27222e-05
2.33297e-05
-9.89906e-06
-5.74385e-06
1.60568e-06
2.49358e-05
3.42007e-05
1.5626e-05
-8.8087e-06
-9.76578e-06
9.25504e-06
1.65231e-05
1.13605e-05
5.16789e-06
1.90441e-05
2.49883e-05
-1.90753e-06
-2.36491e-05
-1.0538e-05
3.62202e-05
0.000124285
0.000234547
0.00030844
0.000268789
0.000154256
0.000128704
9.85953e-05
2.17335e-05
-8.79024e-06
4.84089e-05
0.000120268
0.000104049
4.86178e-05
8.47116e-06
-3.26894e-06
3.46448e-05
8.25333e-05
9.74883e-05
7.3899e-05
4.61346e-05
1.19155e-05
-7.74228e-06
-3.26768e-06
-4.80076e-06
6.07502e-06
2.30815e-06
4.45437e-06
2.00222e-06
-1.25192e-06
-2.21387e-06
-1.98513e-06
2.32259e-07
2.34114e-07
-4.0233e-06
1.03159e-06
6.85582e-06
2.48264e-06
-2.6928e-06
-1.10181e-06
5.66276e-06
1.80936e-05
3.5998e-05
4.9719e-05
4.30431e-05
7.2447e-06
1.48294e-06
1.81468e-05
5.23287e-06
-4.5308e-06
1.05961e-05
3.87567e-05
2.62627e-05
-1.34382e-05
-2.5739e-05
-9.00584e-06
1.14353e-05
2.18098e-05
1.96493e-05
8.95352e-06
-8.45572e-07
-1.10291e-05
-1.00638e-05
5.31099e-07
2.97005e-07
-5.76479e-07
-7.9719e-06
-1.32537e-05
-5.01464e-06
1.21546e-06
-2.71165e-06
-7.97582e-06
-6.89954e-06
-6.87665e-07
-8.12796e-06
-1.31953e-05
-6.6668e-06
-4.2671e-06
2.37974e-06
4.15024e-06
-2.78761e-06
-1.09226e-05
-1.13318e-05
-6.55773e-06
-5.13852e-07
-5.72522e-06
-5.74017e-05
-6.28973e-05
-2.18139e-05
3.51223e-06
-1.80987e-05
-2.16698e-05
1.16909e-06
-7.76294e-06
-1.74133e-05
-5.39205e-06
-2.29211e-06
-5.09083e-06
-2.01477e-06
1.67175e-07
-3.39599e-06
-1.61176e-05
-1.22792e-05
7.4022e-09
-1.75719e-06
-4.8703e-07
-5.48209e-06
-1.78047e-05
-9.6418e-06
1.28606e-06
-1.99116e-06
-5.11582e-06
-5.0011e-06
-8.68861e-07
-6.65927e-06
-2.22351e-05
-1.56359e-05
-1.0077e-05
3.43991e-07
8.50669e-06
2.9338e-06
-6.72696e-06
-1.06829e-05
-6.5476e-06
-3.28182e-06
-3.15388e-07
-5.87484e-05
-0.000110674
-5.72804e-05
1.36744e-06
-2.6375e-05
-3.84327e-05
-7.42082e-06
-1.47684e-06
-8.47519e-06
-4.03402e-06
-1.47134e-06
-4.43563e-06
-2.13517e-06
-1.39411e-07
-1.3896e-06
-1.36268e-05
-1.62604e-05
-9.40057e-08
-4.68296e-06
-1.95309e-06
-9.98236e-07
-1.07928e-05
-9.34731e-06
4.4394e-07
-9.18553e-07
-2.13151e-06
-1.51254e-06
-4.68017e-07
-2.39454e-06
-1.63291e-05
-1.90528e-05
-1.05087e-05
-1.55501e-06
7.59121e-06
6.48186e-06
8.0642e-07
-4.15353e-06
-3.67491e-06
-1.55415e-06
1.58652e-06
-2.61407e-05
-9.75665e-05
-6.82734e-05
-2.39284e-06
-2.25361e-05
-2.24321e-05
-2.53291e-06
-2.03541e-07
-1.08273e-06
-9.12217e-07
-3.20363e-07
-4.84207e-07
-5.01934e-09
-5.73085e-07
-3.74253e-07
-4.97852e-06
-1.42773e-05
-2.92637e-06
-1.91829e-06
-4.38546e-06
-5.99096e-07
-3.135e-06
-4.99493e-06
-7.86095e-08
-1.66493e-07
-7.03011e-07
-3.65596e-07
-2.9809e-07
-1.61367e-07
-6.5991e-06
-1.31694e-05
-8.90407e-06
-1.61248e-06
3.98172e-06
4.03995e-06
2.13037e-06
-6.01042e-07
-2.42997e-06
-2.54277e-06
1.00426e-06
-4.66853e-06
-6.22346e-05
-5.7129e-05
-2.89879e-06
-1.42681e-05
-8.36208e-06
6.54108e-07
1.11632e-07
-1.08905e-07
-1.32955e-08
-1.79002e-08
-3.82542e-08
-4.63511e-08
-8.8359e-07
-6.96268e-07
2.27317e-07
-5.48082e-06
-4.17208e-06
2.92264e-07
-2.44476e-06
-3.80454e-07
-4.76152e-07
-1.45566e-06
-3.46591e-08
5.10099e-08
-2.3548e-07
-1.24183e-07
-1.84843e-07
2.01085e-07
-1.77293e-06
-5.94177e-06
-4.7999e-06
-1.20384e-06
4.31676e-07
3.01586e-07
5.03405e-07
4.43835e-07
-4.81784e-07
-1.74126e-06
3.63438e-07
6.85815e-07
-3.71737e-05
-3.99679e-05
-1.57383e-06
-8.02445e-06
-3.55589e-06
4.5517e-07
1.60861e-07
-2.14525e-08
-7.13936e-10
6.88467e-09
4.26242e-09
4.28893e-09
-1.01502e-07
-5.38809e-07
4.78926e-07
-6.74514e-07
-1.9939e-06
-5.51157e-08
-3.20183e-07
6.28858e-09
-4.68779e-08
-2.03116e-07
-2.40962e-08
-1.62271e-07
-2.08288e-07
-5.41933e-08
-2.68973e-08
1.40508e-07
-2.9951e-07
-1.98727e-06
-1.72579e-06
-5.78213e-07
-8.38035e-07
-8.92328e-07
-3.72101e-07
3.52733e-07
3.63113e-07
-5.56825e-07
1.66511e-07
1.64266e-06
-1.98219e-05
-2.32885e-05
-4.19842e-07
-4.03349e-06
-1.49065e-06
8.59587e-08
7.26333e-08
4.33448e-09
9.23486e-11
-1.41361e-09
-3.18996e-09
3.26597e-09
1.59251e-08
-1.01601e-07
3.01473e-08
1.36605e-07
-4.51324e-07
-1.85567e-07
5.22869e-08
2.78574e-08
2.57959e-09
-2.99771e-08
-8.65466e-08
-1.45248e-07
-9.25248e-08
-2.46894e-08
5.63101e-10
7.1672e-08
-2.39507e-08
-6.00798e-07
-5.68799e-07
-1.54736e-07
-4.33714e-07
-4.03112e-07
-2.14874e-07
1.21816e-07
2.6614e-07
-1.54801e-07
6.60676e-08
1.17424e-06
-7.34399e-06
-1.03482e-05
-3.70786e-08
-1.48631e-06
-5.11985e-07
1.1664e-08
3.23901e-09
3.80634e-10
1.14607e-11
1.03498e-11
-1.00186e-09
-5.24512e-10
4.40112e-09
-3.62052e-09
-1.43564e-08
6.69135e-08
-1.96047e-08
-6.74039e-08
-1.11827e-08
-2.51272e-08
1.77468e-08
-3.90666e-08
-6.16477e-08
-4.15603e-08
-1.10149e-08
-2.31974e-09
3.07678e-10
4.878e-09
2.65775e-08
-1.6727e-07
-2.36816e-07
-4.74965e-08
-1.24788e-07
-1.17614e-07
-5.27067e-08
-4.20563e-09
5.21719e-08
-2.59033e-08
5.50473e-09
3.86377e-07
-1.61237e-06
-3.20544e-06
1.44354e-08
-3.90129e-07
-1.46142e-07
-8.25588e-09
1.06333e-10
2.83896e-12
3.24615e-14
-1.9353e-13
2.64925e-12
1.03348e-11
-1.73724e-11
1.57223e-11
-8.5965e-09
2.35131e-09
2.41841e-09
-4.00041e-09
-1.24265e-08
-1.23067e-08
-4.8654e-09
-4.38564e-09
-8.56533e-09
8.15775e-11
9.62863e-12
1.75416e-12
-2.56179e-12
1.34228e-10
2.24325e-09
-8.08348e-09
-4.30837e-08
-2.7267e-08
-4.65269e-09
-4.69414e-09
-1.12359e-08
-3.05411e-11
1.73608e-08
1.45916e-09
-1.41765e-09
6.10377e-08
-3.10661e-07
-6.53406e-07
-8.37192e-09
-9.85071e-08
-2.23648e-08
9.84301e-11
4.47177e-12
1.13344e-13
3.13032e-15
1.82769e-15
-1.88462e-14
-1.29806e-13
2.5597e-13
-2.61933e-13
1.11394e-14
-9.32074e-15
4.27104e-13
-1.55272e-11
-1.1144e-09
1.50209e-11
3.63846e-11
-8.39055e-12
-5.44212e-12
1.44781e-13
1.9449e-14
-5.3019e-15
1.229e-14
-9.34874e-15
-1.71638e-13
-1.81706e-13
6.14045e-12
3.19263e-11
-2.43534e-11
-4.01598e-12
4.13836e-13
6.58719e-13
-8.68584e-12
8.75038e-12
1.77193e-11
7.72959e-09
-4.3212e-08
-7.54528e-08
-2.75741e-09
-8.49509e-09
8.71057e-12
1.93002e-12
6.09212e-14
1.10427e-15
1.02368e-17
4.41614e-19
2.54212e-17
7.66228e-16
-2.17741e-15
2.51029e-15
-4.03083e-16
1.19013e-16
3.55317e-15
-9.7516e-14
1.27574e-12
5.21917e-14
1.99069e-13
-6.11e-14
-8.22258e-14
-4.11563e-15
-3.11392e-17
1.10042e-20
1.09394e-16
1.09057e-16
2.43805e-16
3.44526e-16
-4.49358e-15
2.6705e-13
-1.56222e-13
-4.2037e-14
3.2891e-15
-3.63587e-15
6.76432e-14
-1.3078e-13
-1.87491e-13
5.12949e-12
-1.27517e-14
6.9075e-12
1.48633e-11
4.62968e-13
2.58652e-13
2.29974e-14
1.02569e-15
2.5412e-17
-4.84142e-20
-1.8653e-18
3.30876e-20
-7.44647e-20
4.66075e-18
-1.51216e-17
2.71483e-18
1.38583e-18
-7.11814e-18
-4.34133e-16
4.25947e-15
1.22497e-16
5.26834e-16
-5.97105e-17
-1.46533e-16
-5.68875e-18
-1.35477e-19
-0
-1.03883e-18
2.20129e-18
5.25007e-19
-8.90816e-20
-6.66989e-17
1.556e-15
-5.21961e-16
-3.14977e-16
4.37395e-17
7.59975e-18
-1.31085e-16
5.97654e-16
2.04367e-16
-1.39732e-14
2.08337e-16
1.48337e-14
8.34235e-14
-7.19355e-15
1.24423e-16
1.88965e-16
8.95113e-18
3.44083e-20
-7.51929e-19
6.9031e-19
-2.52457e-18
-1.23401e-18
2.81343e-19
-1.2428e-18
-8.00316e-19
-8.3373e-19
-5.77029e-19
-1.35196e-18
2.01521e-17
6.36116e-19
7.25102e-20
-4.73238e-19
-2.10068e-20
-3.73467e-21
1.11506e-19
3.40992e-19
4.05957e-19
1.76102e-19
6.70165e-20
1.36343e-19
-8.1333e-19
1.11286e-17
3.43318e-18
-3.82233e-18
-6.58393e-19
1.83998e-18
-8.65684e-19
-1.15689e-18
5.31754e-19
1.09578e-17
3.58941e-18
8.99364e-18
1.27246e-16
-1.10822e-16
6.36485e-19
9.86116e-19
3.01027e-19
4.03372e-19
-8.20125e-19
1.18316e-18
1.74385e-18
-0
1.11854e-19
-2.74202e-19
1.15485e-18
2.52412e-18
-1.88594e-19
6.87934e-19
-1.41152e-18
-9.56826e-19
-1.20178e-20
-2.55644e-19
-0
-2.36352e-19
-1.02494e-19
-9.90719e-19
-4.27126e-19
6.16734e-19
-6.63831e-19
-1.46609e-19
2.88141e-18
-3.05327e-18
-1.50739e-19
-1.78618e-18
-7.25548e-20
-1.56268e-18
3.87846e-19
6.76784e-19
3.54822e-20
8.46821e-19
-3.61284e-19
-2.01382e-19
-9.38663e-19
2.55048e-19
-2.98677e-19
-8.9129e-19
-5.60488e-19
1.02656e-19
-8.91917e-19
-0
-0
3.17681e-20
-5.03635e-19
3.22053e-19
-6.98963e-18
1.06045e-18
-1.94022e-18
-1.34438e-18
-5.40402e-21
8.45856e-19
1.10586e-18
-0
3.92255e-19
-2.25578e-19
-7.46779e-20
1.469e-19
4.17853e-19
-6.8656e-20
1.59051e-19
-2.75934e-19
-3.12007e-19
-8.82745e-19
8.76032e-20
1.67781e-18
-0
3.7852e-20
3.35492e-19
1.7182e-19
-3.2821e-20
6.87258e-20
4.1384e-19
3.80778e-19
1.60763e-20
1.87415e-19
2.64416e-19
-6.5074e-20
2.5719e-19
2.63027e-20
-0
-8.37849e-19
4.37717e-19
-2.32244e-20
-1.1094e-18
6.4237e-19
-2.19799e-18
1.10227e-18
4.06777e-18
-0
-0
1.52212e-18
1.21162e-18
-6.59461e-19
4.69451e-19
5.58139e-20
9.18505e-21
-0
-2.69502e-20
6.69613e-20
-0
-1.60196e-18
-0
-1.13375e-19
-1.20022e-19
3.95135e-19
6.88385e-19
-3.71651e-21
1.36953e-19
2.48794e-19
2.94226e-19
7.33944e-20
1.48865e-19
-2.52722e-21
3.85219e-21
-3.05345e-19
1.40131e-19
-5.75966e-20
-1.04332e-18
-6.0956e-21
-9.69109e-19
-5.41534e-19
-0
-6.38123e-19
2.68538e-18
-7.91116e-18
-0
-6.61131e-19
-0
7.68072e-19
-1.62672e-18
1.06455e-18
6.06886e-20
9.34986e-20
2.35951e-19
-1.49421e-19
-5.35056e-19
-6.76115e-19
-5.40767e-21
1.95483e-19
-2.45962e-19
-4.34652e-19
-1.49436e-18
1.95535e-18
2.54151e-19
-9.02648e-19
7.71484e-21
6.03349e-19
-2.23101e-19
-4.13046e-20
9.22136e-20
-5.38161e-19
3.92553e-19
-3.47915e-19
1.67211e-19
-1.16073e-19
4.37993e-19
-3.16444e-20
-9.8434e-19
-3.37567e-19
-4.17622e-19
-1.96601e-19
3.53751e-19
-8.91132e-20
-2.12869e-18
-4.24425e-18
6.74927e-19
1.15793e-18
-2.19025e-18
8.95365e-19
1.20713e-18
3.23356e-20
-3.89801e-20
-1.9521e-20
3.84729e-21
2.88372e-20
-3.30056e-19
5.1186e-19
1.36333e-20
-7.76514e-20
-7.70671e-19
3.83112e-19
-1.22726e-19
5.44139e-19
-6.83688e-20
3.24796e-20
-1.15372e-19
-0
-5.03899e-20
-3.52298e-19
-2.70347e-20
4.38013e-19
-4.09327e-19
5.50238e-20
2.05381e-21
9.60789e-20
1.27863e-19
8.19451e-19
1.74153e-18
-2.95515e-19
1.19775e-18
1.16621e-19
-8.66571e-19
1.18144e-20
1.47269e-18
9.74461e-19
2.28355e-19
4.08589e-19
-4.77529e-19
-6.07155e-19
-6.66136e-19
-5.10305e-20
-8.15876e-21
-8.66061e-20
-2.82041e-20
1.42856e-19
6.84211e-21
1.89811e-20
2.20685e-20
-6.93905e-20
-0
-9.85563e-19
7.28535e-19
-4.84779e-19
-2.13831e-19
1.49756e-19
7.44612e-20
1.03903e-18
4.05974e-19
3.85724e-19
1.67859e-19
-3.33359e-21
-5.33554e-20
3.22695e-21
-1.0929e-18
-3.68523e-19
1.14741e-19
-1.39261e-19
2.35804e-18
1.05806e-18
-3.75422e-19
5.50143e-19
1.97334e-20
-2.37408e-19
2.33767e-20
-1.5462e-20
-9.21648e-21
7.82522e-20
5.81228e-19
-3.16398e-19
4.60967e-19
-1.99714e-20
-8.45369e-20
-3.5284e-19
-9.45888e-20
-1.65838e-20
2.24884e-20
-2.24842e-21
1.48036e-21
-3.41923e-19
2.0091e-19
8.71951e-19
-8.53053e-19
1.3219e-18
-3.40556e-20
-4.76552e-19
-7.36068e-20
1.23403e-20
2.49261e-18
-9.10893e-21
8.31073e-19
-3.93003e-19
2.25722e-19
-2.58114e-19
-3.85759e-20
-3.16685e-19
-7.94385e-20
2.86945e-20
-4.67054e-20
1.81415e-20
-4.23137e-20
1.09352e-19
4.87814e-20
1.1452e-20
-1.32473e-19
-1.53004e-19
-0
1.13051e-19
-2.61807e-20
-8.81712e-20
-2.57958e-19
-3.90249e-19
1.36813e-19
2.0669e-20
-2.63898e-19
-2.03298e-19
-1.81345e-20
-2.12727e-19
1.04821e-19
-2.38637e-20
-1.26209e-19
-7.48565e-21
2.22691e-19
2.66022e-19
1.36536e-19
6.49942e-19
8.11093e-19
1.1161e-18
-4.76965e-19
1.42906e-19
-1.39357e-19
-1.43271e-18
8.9404e-19
8.14126e-20
-5.13485e-19
-0
6.68011e-20
-1.23223e-20
4.73693e-21
2.42117e-19
4.58661e-20
9.43665e-20
-2.77956e-19
2.00243e-20
-2.72436e-19
9.24351e-21
3.33656e-19
-3.84877e-19
-9.67809e-20
2.24434e-19
1.11085e-19
1.5671e-06
5.48217e-06
2.87234e-06
-7.09915e-07
-8.81601e-07
-4.87694e-07
3.00607e-07
1.64339e-06
1.68487e-06
2.38633e-07
2.06057e-07
7.04263e-07
6.92411e-07
-4.25666e-07
-2.47052e-06
-2.32416e-06
9.91684e-08
1.57523e-06
2.79306e-08
-3.95279e-06
-4.37098e-06
9.91597e-07
2.58287e-06
3.95556e-06
9.67285e-06
1.36038e-05
1.1752e-05
6.52014e-06
7.71892e-07
-2.5912e-06
-3.50226e-06
-3.47418e-06
-2.72541e-06
-7.05264e-07
3.59148e-06
5.75822e-06
1.88239e-06
2.38705e-06
8.40843e-06
6.91092e-06
5.32183e-05
7.87983e-05
8.60714e-06
-3.37255e-05
-2.86034e-05
-5.98878e-06
9.71161e-06
1.74486e-05
1.36969e-05
-2.76806e-06
-1.64972e-05
-1.80649e-05
-1.23415e-05
-1.04211e-05
6.72621e-06
6.44941e-05
0.000151086
0.000224457
0.000251831
0.000161858
2.44165e-05
1.0028e-05
1.70924e-05
5.44503e-05
0.000128007
0.000175517
0.00013139
2.99215e-05
-5.69015e-05
-7.62517e-05
-3.83325e-05
6.5941e-06
2.84091e-05
3.07305e-05
2.53199e-05
2.29714e-05
3.20479e-05
3.01313e-05
1.97152e-05
7.00428e-06
5.34116e-05
9.26345e-05
2.74102e-05
-2.16578e-05
-2.21445e-05
-2.68697e-06
5.86005e-06
5.28312e-06
6.94932e-06
7.1549e-06
-5.14005e-06
-2.31211e-05
-2.92338e-05
-2.21962e-05
1.00793e-05
7.89139e-05
0.000160737
0.000230491
0.000276204
0.000206111
4.47429e-05
1.32619e-05
1.6151e-05
3.55312e-05
9.81143e-05
0.000155208
0.00012326
2.74114e-05
-4.94222e-05
-5.96627e-05
-1.9968e-05
1.9488e-05
3.03315e-05
2.13902e-05
1.25347e-05
2.20864e-06
3.40236e-06
2.14937e-05
1.25404e-05
2.66756e-06
-1.05669e-05
1.9508e-06
3.82246e-06
-3.42463e-06
-5.84442e-06
-2.09668e-06
7.75967e-08
-1.75691e-06
-1.65174e-06
1.6939e-06
1.82522e-06
-3.50651e-06
-6.39411e-06
-4.10057e-06
4.24277e-06
1.77387e-05
3.22235e-05
4.4645e-05
5.66605e-05
4.38621e-05
-1.30134e-05
-4.38525e-05
-2.05692e-05
2.59997e-06
2.4049e-05
5.08258e-05
4.30718e-05
5.44988e-06
-1.45086e-05
-9.39778e-06
9.34655e-07
2.82154e-06
-1.41596e-06
-8.32737e-06
-1.1203e-05
-8.93894e-06
-2.46721e-06
6.226e-06
6.29966e-06
-6.52757e-06
-4.87263e-05
-5.32973e-05
-1.38582e-05
2.4041e-06
-1.37296e-06
-4.24954e-06
-1.6696e-06
7.10655e-07
1.69194e-07
-5.19921e-07
-7.04811e-07
2.57521e-07
2.06888e-06
3.30156e-06
1.19596e-06
-4.07882e-06
-6.40644e-06
-6.0155e-06
-6.31242e-06
3.51882e-06
-8.92831e-06
-8.42523e-05
-6.30806e-05
-5.91812e-06
-6.74752e-07
4.89132e-06
1.03526e-05
1.30059e-06
-1.09426e-06
-6.18723e-07
-2.08032e-06
-3.10249e-06
-1.99253e-06
-4.04202e-06
-8.45109e-06
-7.08166e-06
-1.38589e-06
-7.20203e-07
-1.29909e-06
-3.24834e-06
-4.8395e-05
-7.48125e-05
-2.65979e-05
1.94509e-06
1.00527e-06
-4.3225e-06
-2.567e-06
2.2843e-06
2.81679e-06
-2.66862e-08
-2.71865e-06
-1.57669e-06
1.78225e-06
4.00218e-06
1.56518e-06
-4.87062e-06
-7.49751e-06
-5.46626e-06
-6.27588e-06
-5.42709e-06
-1.98731e-07
-7.86743e-05
-0.000100784
-1.8712e-05
-5.45623e-06
-1.35179e-05
-3.3999e-06
-6.55359e-07
2.43705e-06
1.58645e-06
-1.97336e-06
-2.05262e-06
-7.22181e-07
-1.1846e-06
-6.36353e-06
-8.06714e-06
-1.54955e-06
-9.51898e-07
-5.82331e-06
1.38591e-06
-2.2004e-05
-6.3464e-05
-2.81426e-05
-9.09577e-07
1.5771e-06
-2.97993e-06
-2.85317e-06
1.01514e-06
2.79901e-06
6.89873e-07
-1.82905e-06
-2.6078e-06
-1.80992e-06
-3.71389e-07
-8.23901e-07
-2.70997e-06
-2.86027e-06
-1.66535e-06
-1.89482e-07
-2.02691e-06
3.04982e-08
-3.68183e-05
-9.17996e-05
-3.18206e-05
-3.17663e-06
-1.42207e-05
-7.08005e-06
-1.14031e-06
1.17467e-06
5.31856e-07
-1.00855e-06
-5.07595e-07
-9.29603e-08
-4.01635e-07
-2.91217e-06
-6.32762e-06
-3.64728e-06
4.41165e-08
-3.75168e-06
4.90202e-07
-4.56203e-06
-3.21688e-05
-1.87937e-05
-2.4914e-06
8.40054e-07
-1.43291e-06
-2.17884e-06
-4.384e-07
9.17625e-07
4.64309e-07
-5.80973e-07
-1.6272e-06
-3.25265e-06
-3.32857e-06
-2.18442e-06
-1.51242e-06
-1.0799e-06
-6.13795e-07
-3.0337e-07
-7.39931e-07
8.55063e-08
-7.76369e-06
-4.77806e-05
-2.64083e-05
-1.48848e-06
-7.38617e-06
-4.96479e-06
-8.04288e-07
3.11927e-07
1.15015e-07
-1.86362e-07
-9.12821e-08
1.7963e-10
3.04766e-09
-5.66411e-07
-1.91337e-06
-2.6028e-06
-2.83234e-07
-8.10276e-07
2.46565e-07
-2.24939e-07
-8.93972e-06
-8.16706e-06
-1.81994e-06
1.12367e-07
-5.2461e-07
-1.12894e-06
-6.63707e-07
-9.09532e-08
-2.19122e-08
-4.86505e-07
-1.23017e-06
-2.36165e-06
-2.25616e-06
-9.31545e-07
-3.4672e-07
-3.72703e-07
-3.19822e-07
2.79755e-07
-3.75085e-07
1.2833e-07
-1.13224e-06
-1.87556e-05
-1.36142e-05
-8.60574e-07
-2.46023e-06
-2.02376e-06
-3.14612e-07
1.61402e-07
1.85623e-07
1.19367e-07
2.33058e-08
-4.1391e-09
8.73613e-08
-1.15026e-08
-2.70411e-08
-6.81515e-07
-2.67557e-07
-5.51001e-08
4.25664e-07
7.57613e-08
-1.33915e-06
-1.82917e-06
-5.43524e-07
-1.06531e-07
-2.25821e-07
-3.96031e-07
-2.7191e-07
-1.10092e-07
-6.11797e-08
-1.80463e-07
-6.76869e-07