/*--------------------------------*- C++ -*----------------------------------*\
| =========                 |                                                 |
| \\      /  F ield         | OpenFOAM: The Open Source CFD Toolbox           |
|  \\    /   O peration     | Version:  5.0                                   |
|   \\  /    A nd           | Web:      www.OpenFOAM.org                      |
|    \\/     M anipulation  |                                                 |
\*---------------------------------------------------------------------------*/
FoamFile
{
    version     2.0;
    format      ascii;
    class       volScalarField;
    location    "50.4676134421789371";
    object      Pwt;
}
// * * * * * * * * * * * * * * * * * * * * * * * * * * * * * * * * * * * * * //

dimensions      [0 1 -2 1 0 0 0];

internalField   nonuniform List<scalar> 
60000
(
9.72375e-05
0.000125162
0.000101946
4.92922e-05
1.64476e-05
-1.01991e-06
2.3352e-06
1.52454e-05
3.14396e-05
3.5999e-05
4.29021e-05
5.53586e-05
3.45728e-05
2.45554e-05
2.12207e-05
-1.20744e-05
-2.99284e-05
1.08277e-05
9.57904e-05
0.000195961
0.000335454
0.000311425
0.000271665
0.000248719
0.000103845
-2.42256e-05
6.16879e-05
0.000261756
0.000285936
9.89275e-05
-8.2667e-05
-0.000184006
-0.000259741
-0.000310836
-0.00026811
-6.93701e-05
-4.38426e-05
3.78428e-05
6.89993e-05
7.06192e-05
0.000568133
0.000370905
0.000128799
3.04151e-05
2.42435e-05
-6.11871e-05
-8.83848e-05
9.23102e-06
0.000130292
0.000311439
0.000503892
0.000446298
0.000109335
-0.000109551
-0.000170983
-0.000303822
-0.000436856
-0.000528676
-0.000695703
-0.000604044
7.21339e-05
0.000568606
0.000733739
0.000542068
-0.000281868
-0.00125296
-0.00131969
-0.000428209
0.00032171
2.23988e-05
-0.000707981
-0.00113637
-0.00135718
-0.00153137
-0.00149664
-0.000745607
-3.17932e-05
0.00035946
0.000646619
0.000677197
0.00032319
0.000181647
3.75053e-05
-2.522e-05
-3.70789e-05
-4.92835e-05
-6.56483e-05
-1.91366e-05
4.47398e-05
0.000125812
0.000250323
0.00027309
0.000124487
-2.81927e-05
-0.000101588
-0.000202245
-0.000322911
-0.000405784
-0.000460198
-0.000431522
-0.000165985
-6.6375e-05
-0.000323207
-0.000528201
-0.000665997
-0.0008643
-0.000888788
-0.00062332
-0.000215839
-5.87607e-05
-0.000210955
-0.000412946
-0.00052302
-0.000600348
-0.00063261
-0.000448257
-0.00011528
0.000127713
0.000327318
0.000399073
5.15812e-05
2.17556e-05
3.1787e-06
-4.20223e-06
-8.24643e-06
-1.37585e-05
-2.21093e-05
-8.11756e-06
1.58809e-06
1.36077e-05
2.96773e-05
2.4502e-05
1.27762e-05
3.20491e-06
-9.12991e-06
-3.32735e-05
-8.284e-05
-0.000145509
-0.000153803
-7.05973e-05
-2.04819e-05
-8.78373e-05
-0.000236164
-0.000308923
-0.00022021
-0.000115557
-9.02659e-05
-0.000116939
-8.54421e-05
-2.29083e-05
-9.21474e-06
-3.0245e-05
-5.04222e-05
-6.38092e-05
-8.02073e-05
-6.4487e-05
-2.90922e-05
-8.43938e-07
3.73566e-05
6.74425e-05
-7.8259e-06
-2.67343e-05
-8.15083e-06
1.01599e-07
-3.99427e-06
-7.97247e-06
-1.67697e-05
-9.10931e-06
-1.04808e-07
7.95767e-06
1.19243e-05
-3.26886e-05
-3.24316e-05
-2.54401e-06
-1.81962e-05
-4.24443e-05
-5.87156e-05
-8.4546e-05
-7.80027e-05
3.76943e-05
4.17025e-05
-0.000154632
-6.14941e-05
7.76017e-05
4.49937e-05
1.57636e-05
1.30465e-05
7.81687e-07
-1.48934e-05
1.69565e-06
1.01953e-05
2.28472e-06
-5.55663e-06
-8.62449e-06
-9.5449e-06
1.34299e-06
2.07705e-06
-4.09657e-06
3.07417e-06
1.18016e-05
-8.49486e-07
-2.56655e-05
-1.80097e-05
-9.22081e-07
-2.02135e-06
-3.53301e-06
-8.07229e-06
-1.05411e-05
-1.4543e-06
1.45791e-06
1.31676e-05
-2.54129e-05
-5.29956e-05
-7.88039e-06
-1.57393e-05
-6.08829e-05
-5.88336e-05
-4.05766e-05
-2.66296e-05
4.94295e-05
0.000100048
-0.000166484
-6.90671e-05
0.000165451
6.55466e-05
-3.92964e-06
-3.96177e-06
6.78962e-06
2.89477e-06
-5.01853e-06
2.6426e-06
4.75959e-06
1.35115e-07
-4.24475e-06
-7.96619e-06
1.78735e-07
7.39152e-06
-2.00479e-06
-2.96334e-06
1.86178e-06
8.49277e-07
-4.96019e-06
-1.00997e-05
-2.7293e-06
-5.13601e-07
-9.40453e-07
-1.61873e-06
-4.72185e-06
-2.81038e-06
-1.73085e-07
3.3995e-06
-7.49125e-06
-3.53001e-05
-9.43876e-06
-4.40654e-06
-5.11791e-05
-4.78612e-05
-1.67528e-05
-2.56407e-06
1.4837e-05
8.19422e-05
-9.67816e-05
-5.7123e-05
0.000128286
1.62898e-05
-1.63106e-05
-1.3201e-06
-2.3301e-07
3.23574e-06
6.6809e-07
-3.74766e-06
-8.22717e-07
9.21429e-07
-6.13029e-07
-3.58002e-06
-4.16726e-06
9.89459e-07
1.32608e-08
-2.54919e-06
-2.20212e-06
-6.46606e-07
8.56787e-08
-1.19511e-06
-7.89108e-07
2.44662e-08
-9.73164e-08
-1.35026e-08
-6.91191e-07
-1.39007e-06
-1.41805e-07
2.90123e-08
-2.82242e-06
-1.32642e-05
-2.10873e-06
6.14066e-07
-2.55884e-05
-2.15632e-05
-8.48472e-06
-4.60049e-07
-1.18576e-05
1.63372e-05
-4.44931e-05
-2.83474e-05
5.92744e-05
-1.28131e-05
-1.22691e-05
-2.59105e-06
-1.29451e-08
-2.17029e-07
6.82402e-07
1.3162e-07
-1.01507e-06
-9.17058e-07
-6.027e-07
-4.05938e-07
-1.31135e-06
-1.12415e-06
-2.43173e-07
-7.31919e-07
-1.38394e-06
-2.82787e-07
-1.70727e-08
1.58158e-07
8.83207e-08
8.36576e-08
3.08555e-08
-2.31096e-09
-9.69423e-09
-2.12787e-07
-2.97895e-08
-1.07235e-07
-1.77806e-06
-4.32978e-06
1.6193e-06
8.35402e-07
-8.74184e-06
-6.14472e-06
-3.55098e-06
-1.35357e-06
-6.06481e-06
-1.68652e-05
-2.34781e-05
-8.70196e-06
1.34211e-05
-1.63086e-05
-5.26653e-06
-6.11339e-07
-5.98915e-08
-4.09031e-08
-4.66853e-08
9.64212e-08
1.6445e-08
-1.91218e-07
-4.85704e-07
-2.39363e-07
-2.09236e-08
-2.96677e-07
-2.0583e-07
-5.79572e-08
-1.36946e-07
6.97373e-08
-2.58764e-08
6.22364e-08
7.92307e-08
2.66806e-08
5.40991e-09
-4.4775e-09
-1.08425e-08
-1.93686e-08
6.27246e-09
-2.12141e-08
-7.07165e-07
-1.09945e-06
1.0951e-06
3.66898e-07
-1.99652e-06
-1.86663e-06
-7.72541e-07
-3.38458e-07
5.37224e-07
-8.03195e-06
-1.17617e-05
-2.13195e-06
-7.63895e-07
-7.64142e-06
-1.81605e-06
-1.33772e-07
-6.73873e-10
1.46232e-08
-1.83868e-10
-3.02613e-09
4.68974e-09
1.18074e-08
-6.09915e-08
-8.51317e-08
2.80945e-08
2.39564e-08
-3.4205e-08
1.23196e-08
1.02195e-07
7.66649e-08
1.21656e-08
1.06648e-08
3.43436e-08
1.40763e-08
1.44483e-09
-6.31309e-10
-5.59089e-09
-7.58345e-09
-1.52508e-09
2.24825e-09
-1.72698e-07
-3.09476e-07
2.83714e-07
5.68468e-08
-6.59157e-08
-4.52843e-07
-3.58249e-07
1.74345e-07
2.31422e-07
1.14601e-06
-2.793e-06
-2.93127e-07
-1.34983e-06
-1.45657e-06
-1.65046e-07
-5.746e-08
-3.57108e-10
-1.8527e-12
-2.85129e-10
-3.35517e-10
2.37181e-12
3.31565e-10
5.23297e-09
-5.72029e-09
-1.9704e-09
1.61933e-08
7.79476e-09
1.12755e-08
4.62111e-08
2.33025e-08
6.31041e-09
8.86751e-10
2.32246e-09
1.4187e-11
4.51725e-13
1.5103e-13
1.48201e-10
-2.01803e-09
-9.56198e-10
8.02856e-10
-1.57473e-08
-1.04571e-07
-1.88696e-09
-2.91142e-08
6.4169e-08
2.42015e-08
-6.83992e-08
8.98947e-08
-1.10253e-07
1.13676e-06
7.42833e-07
2.891e-07
-2.20151e-07
-4.88836e-08
1.8966e-08
4.72065e-09
5.72566e-12
2.51673e-13
5.57099e-13
3.72434e-13
8.09795e-13
-5.74977e-13
-1.87991e-12
3.1245e-13
-6.64879e-14
1.33315e-12
1.13634e-09
-9.67005e-13
8.27386e-09
-1.11052e-12
-8.2578e-12
7.25822e-12
4.01221e-12
1.49409e-13
1.44615e-16
-2.44018e-16
4.57233e-14
-1.90047e-12
2.71916e-11
-6.83368e-10
-3.16847e-09
-4.12715e-08
-3.52768e-09
-7.37882e-09
-6.58602e-09
-3.68723e-10
-1.36192e-08
7.98017e-09
-3.96559e-08
2.30792e-07
6.2234e-07
1.98617e-07
-1.56215e-09
4.5666e-08
8.64289e-09
5.18842e-11
2.32797e-13
-5.99076e-14
-1.17585e-14
2.23193e-15
-2.96223e-16
1.62575e-15
1.13982e-14
-1.59243e-15
-1.33138e-15
2.13377e-15
-1.78154e-14
2.3484e-14
-6.24035e-14
6.38834e-18
-4.85113e-14
5.47822e-14
2.93882e-14
7.82494e-16
-1.66593e-18
-7.78971e-18
-2.28302e-17
3.74743e-15
-2.64378e-14
-1.14509e-12
2.68547e-09
-1.36198e-08
-1.68829e-09
-2.99894e-11
3.28733e-12
-1.26815e-12
5.57686e-09
1.42825e-09
6.02665e-10
-1.63788e-08
1.12852e-07
4.66415e-08
6.24895e-10
3.79729e-09
5.92508e-12
4.20272e-14
6.82982e-16
4.0332e-16
4.92107e-17
-7.42986e-18
-9.095e-18
-1.33144e-18
-4.25498e-17
6.44155e-18
1.25229e-17
-2.5558e-18
-2.7588e-17
9.38752e-17
5.09408e-16
4.03099e-17
-1.87711e-16
2.55607e-16
2.70488e-16
2.42848e-17
1.71147e-18
2.769e-19
-1.08955e-18
1.08279e-17
-3.24327e-17
-2.95549e-15
2.04915e-13
-4.57906e-14
3.38293e-12
-1.62447e-14
8.34617e-14
3.34055e-14
-2.74698e-13
2.63678e-12
1.61855e-12
8.27653e-12
3.90138e-13
-7.48286e-12
-1.22939e-12
3.90022e-13
4.83709e-14
1.5242e-15
1.95314e-18
-1.61951e-18
-1.3803e-19
-7.52213e-21
-2.51579e-19
-7.4611e-19
-9.56159e-19
2.87797e-18
3.9133e-18
2.55671e-18
-0
-3.196e-20
2.78034e-18
-1.29538e-19
3.14543e-19
-6.65227e-19
-4.0844e-19
-1.09385e-18
-1.95985e-19
1.6095e-19
-2.03636e-19
2.66424e-20
8.93201e-20
-3.43428e-18
3.5557e-16
-7.71971e-16
2.67297e-14
3.20731e-15
8.68536e-16
8.13887e-17
-3.67153e-17
2.37291e-15
-1.28345e-15
-1.21913e-14
2.84663e-15
-4.84785e-14
-1.65243e-14
3.86661e-15
3.85242e-16
1.19264e-17
6.67808e-19
-3.51294e-19
6.63514e-19
1.77319e-18
-3.87473e-19
-1.2311e-19
-5.45961e-20
1.57902e-18
-4.39849e-18
-2.13478e-18
2.52711e-20
1.23181e-19
3.19244e-19
2.479e-20
-9.83635e-20
-1.27031e-19
4.30437e-20
-2.53416e-20
-6.53051e-19
6.95012e-20
-5.96221e-21
-1.43442e-19
6.01746e-20
2.44439e-19
6.64024e-19
8.42526e-19
1.47139e-16
8.54076e-19
-9.70498e-18
5.80543e-19
5.6608e-19
-5.77953e-18
-2.19787e-18
2.47747e-17
1.43756e-17
-1.56242e-16
-5.12313e-18
3.48558e-17
3.38045e-18
7.32332e-19
6.40703e-19
1.64312e-19
8.03837e-20
1.27429e-18
-5.19675e-19
7.53529e-19
-9.36711e-20
8.90993e-19
2.08558e-18
-9.66326e-19
8.23697e-19
1.94037e-19
3.88382e-19
9.57765e-20
4.13321e-20
-5.19245e-20
-2.59443e-20
-4.51043e-19
-6.80491e-19
4.84082e-19
7.50995e-20
-9.95103e-20
-0
1.04855e-19
-2.27926e-19
3.6518e-20
1.5804e-18
-1.96247e-19
1.80086e-18
-4.7021e-18
1.10889e-18
-1.50773e-19
2.10625e-19
1.11218e-18
1.88618e-20
-1.55843e-18
1.07173e-18
1.74618e-18
-5.93018e-19
5.35225e-20
5.8661e-19
-5.40109e-20
-1.9211e-19
1.18471e-18
1.09454e-18
-2.76548e-19
1.08391e-19
1.581e-19
1.11754e-19
-1.3866e-19
-2.72371e-19
-1.22587e-19
5.43016e-20
-5.87992e-20
5.80611e-20
-5.48393e-20
-2.09286e-19
-6.47664e-19
-7.30437e-19
1.24777e-18
-2.23681e-19
-3.27277e-19
3.3431e-19
-5.09042e-19
4.97405e-20
-1.21305e-19
-4.85435e-20
-4.52704e-20
-1.0767e-18
-1.58178e-19
2.4592e-20
-3.58197e-19
-1.03283e-18
5.08286e-19
1.44065e-18
6.2478e-19
-6.02571e-19
-1.71369e-18
8.19178e-19
-7.31096e-19
4.31617e-19
-2.07564e-18
-1.81905e-18
-1.32163e-18
-9.89783e-19
-1.105e-18
1.56861e-18
-1.2281e-19
1.86232e-18
-3.08782e-18
-8.04986e-19
3.89738e-19
-1.12076e-19
1.97937e-20
3.5848e-20
-1.20959e-19
4.45278e-21
-2.81816e-19
-6.14954e-19
-2.08221e-18
-4.23915e-19
-0
6.36808e-20
-5.21915e-19
7.32041e-19
4.2897e-20
1.14435e-19
-5.97512e-19
8.92977e-19
-0
-0
2.78005e-19
-2.02255e-19
-1.61892e-21
-1.27564e-19
2.60181e-19
-1.96795e-20
-3.30741e-19
7.871e-19
1.40342e-18
3.78898e-19
2.13968e-18
2.23415e-18
-6.95142e-19
-0
-0
-4.25033e-18
-9.4664e-19
-3.16893e-19
1.17291e-18
-1.19366e-18
-1.02277e-19
-1.02547e-20
1.92849e-19
-4.67665e-19
-7.04789e-20
-2.67443e-19
1.30279e-18
2.89119e-18
-1.47663e-19
-1.16523e-19
2.38992e-19
3.26906e-19
-1.74414e-19
-6.93272e-22
2.17966e-19
4.16524e-19
4.91776e-19
-8.57559e-20
8.73895e-20
-4.61573e-19
-3.10175e-19
3.14566e-19
-0
-7.02639e-20
1.50825e-19
-6.03568e-20
-1.34499e-20
1.02657e-19
-1.7166e-20
-3.29571e-19
-1.72844e-19
-1.99215e-18
2.27037e-20
-1.8141e-20
5.68689e-20
-6.09364e-19
-3.76517e-18
-5.6987e-19
6.2055e-19
1.21391e-18
-2.5439e-19
-5.01101e-19
-6.52026e-20
2.26867e-19
1.85858e-19
-1.7924e-19
-7.3955e-20
-1.17617e-19
-6.95574e-19
-3.2524e-20
-9.52832e-20
7.19494e-20
-2.44079e-19
-3.60459e-19
-5.99383e-19
8.24034e-19
3.64013e-19
3.15705e-20
-2.03605e-21
-1.7164e-19
-3.73519e-19
-1.03072e-19
-1.82326e-19
2.25739e-19
-5.86297e-19
-7.48078e-20
2.98367e-19
2.33822e-18
-6.06431e-19
-1.83599e-18
9.01164e-20
-3.83503e-19
-0
-2.47641e-19
1.22212e-19
-2.05793e-18
-2.77548e-18
-2.07577e-18
1.66875e-20
-8.66924e-19
-5.34646e-19
-4.26211e-19
-1.48595e-20
4.88001e-20
2.89697e-20
-0
5.91418e-19
-3.69941e-19
2.16366e-19
-1.73079e-20
-0
5.633e-19
-6.46307e-19
-1.87215e-19
-3.38403e-19
2.17618e-19
-8.37126e-20
-7.69716e-19
-6.76226e-21
-1.03827e-18
-1.01243e-18
-6.93436e-19
2.44506e-19
5.82384e-19
-2.38922e-19
1.92998e-20
-5.24964e-19
8.93945e-20
2.02783e-18
9.42382e-19
5.48826e-19
6.65756e-20
1.94097e-20
1.18707e-19
6.76814e-19
-2.64066e-19
2.18316e-19
-1.03011e-19
5.07205e-19
-0
4.07542e-19
1.80634e-19
-1.84212e-21
5.06428e-22
-3.1517e-20
3.40472e-19
4.74297e-19
5.80478e-19
-4.36499e-19
4.35465e-19
6.61109e-20
5.54592e-20
-0
1.96209e-19
1.49122e-19
-1.6788e-19
2.1261e-19
3.27509e-19
3.68175e-19
-1.27013e-19
-7.82553e-20
-7.81165e-20
-1.14449e-19
-2.02697e-20
3.19154e-20
-1.07404e-19
-6.07247e-20
1.4608e-19
5.2195e-19
-1.88556e-19
1.51119e-19
-7.92892e-20
1.92068e-20
-5.82961e-20
-5.54618e-20
1.70004e-18
6.12631e-19
-4.11578e-20
6.42569e-21
3.78374e-20
8.94103e-20
1.30546e-20
3.90691e-20
-2.22729e-21
-1.76921e-19
-3.69985e-20
-1.1196e-19
3.25801e-20
-2.33306e-19
-3.10725e-19
-4.10804e-20
-5.16959e-19
-5.76231e-21
-0
2.20679e-19
-1.72346e-20
-5.56943e-20
-3.0824e-19
-1.17822e-20
-1.46488e-19
1.99307e-20
1.30409e-19
7.16429e-19
2.82306e-18
2.95947e-18
-1.14396e-18
3.8464e-19
-0
-3.16248e-20
4.937e-20
3.89136e-20
-3.28694e-19
-5.11496e-20
2.78383e-19
-3.48939e-19
1.36613e-18
-2.3379e-18
-5.20379e-19
-5.47829e-19
-2.47278e-19
-0
6.97254e-20
5.29348e-07
1.84449e-05
3.86902e-05
2.8287e-05
8.02962e-06
-8.9778e-06
-1.82943e-05
3.33661e-06
1.38917e-05
-3.75879e-06
-2.37377e-05
-4.06314e-05
-5.98122e-05
-4.66876e-05
-1.83295e-05
1.70289e-05
6.0174e-05
8.40946e-06
-0.000277045
-0.000528359
-0.000295152
5.70671e-05
0.00021255
0.000298485
0.000408282
0.000512238
0.000532278
0.000454211
0.000201384
-8.16197e-05
-0.000246369
-0.000292407
-0.000270511
-0.000219286
-0.000151019
-7.13829e-05
-4.18151e-05
-2.52811e-05
-2.2722e-06
8.82597e-06
1.364e-05
2.46457e-05
3.15415e-05
-4.62792e-05
-0.00016025
-0.000216282
-0.000227149
-8.70305e-05
0.000110669
0.000126683
4.50773e-06
-0.000216705
-0.000461368
-0.000628341
-0.000739255
-0.000705704
-0.000418596
-0.000398531
-0.00163258
-0.00358729
-0.00308885
-0.000565927
0.000933383
0.00156896
0.0018171
0.00163332
0.00131327
0.000861634
-7.47968e-05
-0.00127507
-0.00211846
-0.00234528
-0.00208395
-0.00152868
-0.000958449
-0.000450758
-0.000132545
-8.15572e-05
-1.19461e-05
3.09575e-05
2.54664e-05
8.02643e-06
2.40154e-06
-4.20428e-05
-0.000116395
-0.000158193
-0.000157487
-0.000118121
-1.39946e-05
3.70177e-05
8.61361e-06
-6.18813e-05
-0.000153803
-0.000229436
-0.00029145
-0.00028951
-0.0001398
2.31541e-05
-0.000255182
-0.00135468
-0.00189741
-0.000754634
8.37952e-05
0.000321638
0.000486654
0.000507868
0.000373955
0.000144467
-0.000160001
-0.000541139
-0.000895694
-0.00108219
-0.00104691
-0.000820715
-0.000547123
-0.00026548
-8.85649e-05
-4.34983e-05
-1.03871e-05
3.11718e-05
-3.97577e-06
-5.23299e-06
-1.12432e-06
-1.07146e-06
-4.12836e-06
-9.19787e-06
-1.8957e-05
-2.26151e-05
-5.75173e-06
-7.3809e-06
-1.85796e-05
-1.88614e-05
-1.10683e-05
-1.38786e-06
5.53367e-06
9.86072e-06
2.1225e-05
3.6195e-05
4.31279e-05
-0.000125855
-0.000408015
-0.00016228
-3.44958e-05
-3.68664e-05
-2.39845e-05
2.10267e-05
4.41525e-05
4.93414e-06
-4.28107e-05
-7.70074e-05
-0.000103882
-0.000127467
-0.000133902
-0.000111662
-8.3835e-05
-3.26791e-05
-1.10522e-07
-1.73927e-06
-4.08955e-06
-2.57474e-06
-1.84512e-05
-1.15337e-05
7.72601e-07
-1.37242e-06
3.69516e-06
7.69057e-06
1.5995e-06
-4.46427e-06
1.67141e-05
9.76596e-06
-6.72739e-06
4.84646e-06
4.20567e-06
-1.76823e-05
-3.6158e-05
-3.27007e-05
-1.50835e-05
-8.23619e-06
-8.87862e-06
2.60974e-06
-4.06945e-05
0.00010659
7.63565e-06
6.54661e-05
0.00015876
6.9882e-05
1.26287e-05
1.51954e-07
-3.69163e-06
-1.08304e-05
-1.73855e-05
-1.70001e-05
-1.31464e-05
-3.34103e-06
4.3019e-06
2.23752e-05
2.05191e-05
2.62142e-06
-5.12339e-07
-1.97449e-06
-1.19332e-05
-1.69136e-05
7.54579e-07
-2.9759e-06
-3.36782e-06
7.09417e-07
1.83356e-06
-8.01188e-07
1.41041e-05
3.22518e-05
3.63366e-06
8.81747e-06
5.27194e-06
-3.4942e-05
-6.83268e-05
-5.57241e-05
-2.00232e-05
-5.20406e-06
-2.24393e-05
-8.6221e-06
-8.53844e-06
0.000140073
4.24697e-05
5.43686e-05
0.000210153
8.26165e-05
7.80292e-06
-5.51361e-07
-2.90275e-06
-3.35093e-06
-6.91022e-06
-7.42596e-06
-3.0673e-06
2.49292e-06
6.39071e-06
2.6411e-05
3.14982e-05
5.45299e-06
-6.13758e-06
1.04363e-06
-9.93636e-07
-1.08592e-05
-6.57586e-07
-1.71871e-06
-5.46171e-06
-3.21622e-06
-9.82625e-07
4.25934e-07
3.09915e-06
2.53558e-05
1.85658e-05
4.83248e-06
2.53594e-06
-2.84601e-05
-5.28862e-05
-3.62108e-05
-6.59155e-06
4.07125e-06
-9.63204e-06
-1.19576e-05
-1.1542e-05
5.6851e-05
4.5401e-05
1.38651e-05
0.000126313
2.85109e-05
-1.16068e-06
1.05473e-07
-1.38494e-06
-1.4872e-06
-1.04433e-06
-6.24925e-07
-2.10085e-07
4.69274e-07
6.27457e-07
7.60743e-06
2.50165e-05
1.21902e-05
-5.43854e-06
-3.13444e-06
1.91634e-07
-2.43372e-06
-3.72513e-07
-4.38781e-07
-3.63489e-06
-2.35081e-06
-1.11234e-06
1.98129e-07
-3.89398e-07
5.57775e-06
1.71308e-05
7.9457e-06
1.32346e-06
-1.45061e-05
-2.49743e-05
-1.39942e-05
-1.71295e-06
3.5767e-06
-1.13131e-07
-5.81919e-06
-3.40997e-06
5.87368e-06
2.35607e-05
-2.80726e-06
4.49516e-05
-2.43847e-07
-2.53504e-06
3.65291e-07
-1.77778e-07
-3.80596e-08
2.9521e-08
8.58694e-08
-1.40357e-07
-1.36125e-06
-4.64996e-07
-3.6889e-07
7.82419e-06
1.02338e-05
-1.29349e-07
-4.02829e-06
-6.14435e-07
2.22147e-08
2.94429e-07
-5.84101e-08
-1.36847e-06
-8.20122e-07
-4.0263e-07
-8.65106e-09
3.158e-07
-1.37786e-06
4.34651e-06
6.84561e-06
2.67978e-06
-3.06343e-06
-6.12951e-06
-3.07798e-06
-5.92482e-07
1.40503e-06
1.07908e-06
-1.61876e-06
1.61335e-07
-5.95791e-06
5.57345e-06
-3.95686e-06
9.96036e-06
-3.75156e-06
-1.28868e-06
-5.99011e-10
1.21277e-08
1.00013e-09
-1.82718e-09
-4.98342e-08
-3.72613e-08
-2.90285e-07
-7.28236e-07
-4.06742e-08
6.11128e-07
3.58083e-06
1.60812e-06
-1.4781e-06
-1.59008e-07
-9.9322e-09
1.95824e-07
-6.41313e-08
-2.67178e-07
-9.35497e-08
-1.73478e-08
-4.59522e-08
2.50049e-07
-5.48811e-07
-1.00099e-06
1.61389e-06
1.5141e-06
3.19422e-07
-4.39498e-07
-8.33328e-08
-1.21927e-07
3.2899e-07
6.13847e-07
-2.55426e-07
9.50438e-07
-5.36538e-06
-1.67714e-06
-1.67041e-06
3.39923e-08
-2.67626e-06
-7.68121e-07
-1.09539e-07
2.75294e-09
3.54269e-10
2.08926e-09
8.75164e-09
-1.81814e-08
5.91858e-08
-2.16055e-07
1.56875e-08
-2.78823e-08
5.19981e-07
7.20745e-07
1.63709e-09
1.71165e-07
-2.80306e-09
2.76641e-08
8.95262e-09
4.45265e-09
6.84742e-09
-3.70194e-09
3.43256e-09
2.55589e-08
4.07572e-08
-6.72798e-07
-3.38517e-07
2.26967e-07
-1.64273e-09
-1.49455e-07
-5.93458e-08
1.73407e-08
-1.26163e-08
1.24367e-07
1.64537e-08
5.82589e-07
-2.16127e-06
-2.00245e-06
-2.31781e-07
-1.16761e-06
-1.05569e-06
-2.69617e-07
-6.72334e-09
4.37895e-11
-2.33115e-11
-2.68223e-11
1.72666e-09
1.28764e-10
1.55637e-08
-1.06776e-08
-1.66066e-08
8.23532e-09
9.90137e-09
1.11692e-07
1.22119e-07
1.14268e-07
-2.51918e-09
9.04674e-09
2.44773e-08
1.10785e-08
2.23379e-09
-2.41921e-10
9.31482e-10
-5.33069e-10
2.32008e-08
-1.18793e-07
-3.04927e-07
1.30412e-08
-6.47939e-08
-6.47535e-08
-6.15979e-08
3.33115e-10
-3.59666e-09
-2.3529e-08
-6.80952e-11
1.14615e-07
-3.95193e-07
-6.23201e-07
7.6763e-08
-4.40713e-07
-1.96057e-07
-5.48858e-09
-1.02053e-10
-3.18184e-12
-6.0423e-14
2.19137e-13
-3.21872e-13
3.7336e-12
-1.4135e-11
4.59744e-11
-1.10326e-08
1.02779e-09
-2.06702e-09
6.85258e-09
3.22725e-08
3.22056e-08
1.42172e-08
-4.37683e-10
2.81192e-09
4.55678e-11
3.60941e-12
4.72026e-13
3.66872e-12
-1.99812e-10
1.63374e-09
-9.66688e-09
-5.5054e-08
-1.46134e-08
-1.56295e-08
-1.25378e-08
-1.52305e-08
-4.16575e-11
-4.1404e-09
-1.44321e-09
-1.13298e-09
2.08952e-09
-2.82925e-08
-5.96734e-08
2.6238e-08
-5.08256e-08
-2.02735e-09
-2.89501e-11
-2.58064e-12
-1.46614e-13
-6.55104e-15
-1.10325e-15
-1.79829e-15
-4.79181e-14
1.76885e-13
-4.43539e-13
6.3288e-13
-1.59347e-14
3.26905e-14
-8.40954e-13
4.88149e-09
-3.97646e-12
-1.05662e-11
2.46244e-11
9.52966e-12
4.32031e-13
9.93969e-15
-5.29751e-16
-5.16881e-14
2.52995e-13
-6.34677e-14
-3.49365e-14
2.74065e-12
2.69496e-11
-2.50517e-11
-5.96178e-12
1.72526e-13
8.52199e-13
-1.39043e-11
1.45157e-11
2.24164e-11
-4.96029e-09
9.17688e-09
8.3223e-09
2.998e-09
-2.33213e-09
-4.18658e-11
-1.33027e-12
-2.84559e-14
-5.91903e-16
3.17276e-19
-3.62354e-18
1.56095e-17
2.76882e-16
-1.54379e-15
3.53872e-15
-2.67879e-15
-4.36204e-16
8.91114e-16
1.60893e-14
-2.59776e-13
-2.30863e-14
-8.34401e-15
3.94451e-13
1.10315e-13
4.50628e-15
5.76135e-17
4.55514e-18
1.4874e-16
-9.5777e-16
5.41539e-17
3.68072e-16
-4.34371e-15
3.44929e-13
-1.11992e-13
-5.69016e-14
1.82176e-15
-4.27129e-15
9.47322e-14
-1.7626e-13
-3.08284e-13
7.51542e-12
1.91764e-13
1.85021e-12
4.16889e-12
-4.0894e-12
-1.77387e-13
1.61233e-14
1.07998e-15
3.30198e-17
3.81015e-19
9.74705e-19
-3.75083e-21
7.63633e-20
3.88349e-18
-2.28152e-17
1.09969e-17
-4.63592e-18
1.35743e-17
8.92683e-17
-1.91166e-15
-7.27231e-17
-1.6381e-16
1.95076e-15
7.01958e-16
3.52991e-17
5.46467e-19
-0
-7.84255e-19
1.98958e-18
3.27751e-19
-1.87642e-19
-8.72541e-17
2.02809e-15
1.99863e-16
-3.62935e-16
1.04053e-17
5.01645e-18
-1.01924e-16
3.44277e-16
1.35084e-15
-1.63341e-14
7.44474e-16
-8.23942e-15
-1.80448e-14
3.22341e-15
4.42133e-15
4.4669e-16
1.61349e-17
-3.73447e-19
7.47391e-19
-2.93423e-19
6.88826e-19
-2.44589e-19
3.91066e-19
-3.17651e-18
-6.90956e-18
3.25113e-18
6.44906e-19
3.71116e-19
-9.81968e-18
-2.60729e-19
-3.33709e-20
4.43293e-18
2.92919e-18
-1.11237e-18
-2.07354e-19
1.92551e-19
3.33464e-19
1.11887e-19
-1.51915e-20
7.32531e-19
-8.55867e-19
9.54569e-18
6.90874e-18
-3.84972e-18
5.92079e-19
-4.62314e-19
4.80917e-20
-6.71784e-20
-6.86447e-19
1.33215e-17
6.89258e-18
-1.97591e-17
5.9188e-17
1.53889e-17
-9.42564e-18
-3.71605e-19
1.42439e-19
-6.22872e-19
1.03489e-19
-3.28383e-19
-8.09768e-19
-0
4.19835e-19
1.32852e-18
-4.37428e-18
-5.00987e-18
2.99717e-19
-8.51971e-19
2.17548e-19
-3.95287e-19
1.65776e-20
2.09502e-19
-0
1.18359e-18
2.73875e-19
2.72511e-19
-1.23975e-19
3.40141e-19
-4.53597e-19
-1.92337e-19
1.84637e-18
-1.48787e-18
-3.10259e-19
-5.89132e-19
3.46572e-19
1.04216e-18
4.29023e-20
1.04916e-18
1.70768e-19
1.60155e-18
-6.32016e-19
-4.09469e-19
5.86379e-18
3.55485e-18
-2.83507e-19
-4.16705e-19
-3.4742e-19
-2.18805e-19
7.03027e-20
-0
-0
3.30774e-19
8.78383e-19
-1.6067e-19
7.82479e-18
-9.14347e-19
1.46713e-18
1.07471e-18
1.85996e-19
-6.18478e-20
2.0798e-19
-0
-5.63126e-19
1.01097e-18
3.0913e-19
-3.73714e-19
-6.46534e-19
3.00912e-20
1.44359e-19
4.2505e-20
-8.01262e-20
-1.80876e-19
-1.38449e-19
-1.05851e-18
-0
8.91808e-20
4.78676e-19
9.40673e-19
-3.13011e-19
1.01769e-19
5.38504e-19
-1.54441e-19
-5.53757e-19
8.03615e-19
8.09827e-19
-6.06209e-20
-3.52825e-19
2.12604e-20
-0
2.49464e-18
6.36028e-20
1.74057e-18
1.56711e-18
-7.33759e-19
1.64119e-18
-6.90214e-19
-1.36599e-18
-0
-0
1.12048e-18
1.16723e-18
-3.48438e-19
-7.36022e-20
-3.88221e-20
-7.07909e-20
-0
4.78459e-19
1.30856e-19
-0
3.11861e-19
-0
-1.23119e-20
1.48371e-19
-5.16159e-19
-1.0718e-18
-1.87995e-19
9.51543e-20
1.57963e-19
3.02e-19
5.79603e-20
2.66775e-19
1.18078e-20
1.22706e-19
-1.40386e-18
1.47036e-18
-4.70982e-19
-2.12508e-18
-7.80299e-22
-2.15244e-18
1.04032e-18
-0
-3.31311e-18
-4.15127e-18
5.12646e-18
-0
9.55913e-20
-0
3.92901e-19
-9.32704e-19
1.21187e-18
4.85545e-19
-4.92961e-19
5.59229e-19
-1.49725e-18
3.78164e-18
2.17219e-18
1.98214e-20
-7.95672e-20
2.65363e-19
3.22467e-19
2.95715e-19
4.96988e-19
3.11167e-19
-2.81619e-18
-2.67502e-18
-1.70218e-18
5.15559e-19
-4.58254e-20
-1.5586e-19
3.99528e-19
-2.21409e-19
-2.55649e-19
5.01076e-19
-2.41793e-21
2.5611e-19
-1.26498e-20
1.75268e-19
1.16123e-19
5.72652e-19
-1.73008e-19
8.60197e-20
-3.60422e-19
3.62607e-18
4.61509e-18
-3.10598e-19
-2.30304e-20
-7.93676e-19
5.48198e-19
7.9192e-19
1.2143e-19
1.66546e-19
-5.15131e-20
-5.78617e-21
-6.54022e-19
1.4267e-18
-1.48311e-18
-5.6556e-20
-8.7349e-20
2.20171e-19
-1.87939e-19
3.16742e-20
-3.41555e-19
2.03069e-20
-1.99556e-19
-4.43052e-19
-0
-1.04616e-19
-1.27746e-18
1.28464e-19
-6.86853e-19
1.03331e-18
-3.34267e-19
-3.67635e-19
1.7821e-18
-3.49992e-18
-4.38175e-18
-4.26637e-18
4.24979e-19
-1.57653e-18
-3.2781e-19
2.16016e-19
-7.55971e-21
-1.51032e-18
-1.60002e-18
1.44687e-21
3.93319e-19
-1.32924e-18
9.45124e-19
-7.858e-20
2.66036e-20
-1.04272e-19
-4.24538e-19
3.853e-20
7.35989e-19
4.85593e-20
7.35493e-19
8.22919e-20
-4.45812e-20
-0
-3.72635e-19
1.84469e-20
5.89722e-19
-3.00795e-19
1.0086e-19
7.67856e-20
8.48532e-19
3.46272e-19
4.46055e-19
4.47166e-19
5.77223e-20
-3.22769e-19
9.46297e-21
-6.87361e-19
-3.93771e-19
7.32088e-19
4.9626e-19
-1.88255e-18
-1.80266e-19
-8.4948e-20
2.72958e-19
5.9454e-20
-8.14565e-19
-7.60873e-20
9.66639e-21
1.22563e-19
8.94111e-20
6.71206e-19
-2.67702e-19
2.44544e-19
9.66853e-21
-2.61785e-20
-1.32141e-19
-2.42977e-19
1.46089e-19
-7.26464e-20
-1.57909e-20
-1.70701e-20
-2.68562e-19
7.77184e-20
4.52906e-19
-4.26426e-19
1.82846e-19
-8.90878e-21
2.6826e-19
-2.08111e-19
1.31187e-20
-8.12492e-19
-6.16082e-21
-4.4465e-19
3.51948e-19
-1.81613e-19
1.61967e-19
3.46285e-20
1.5779e-19
4.086e-21
1.54148e-20
5.50773e-21
2.49324e-21
-5.04898e-21
6.77727e-20
3.20783e-19
-2.72966e-18
6.5152e-19
2.58972e-19
-0
2.20018e-21
1.97253e-20
1.05489e-20
1.96468e-20
-1.21069e-19
-5.83251e-20
-2.35435e-20
5.0175e-20
-6.78619e-20
-5.5877e-20
5.63793e-19
-2.11826e-19
-2.63011e-19
-1.15762e-19
-3.25551e-20
9.14125e-19
4.5272e-20
-1.4976e-19
-7.14867e-19
-4.82534e-19
-3.13313e-19
1.28345e-19
3.98158e-21
1.49886e-19
1.58208e-18
-9.9608e-19
-9.66056e-20
6.18233e-19
-0
-1.57951e-20
-2.54638e-21
-8.67128e-22
-4.24428e-20
-3.19131e-20
-4.35257e-21
7.94873e-19
7.87111e-21
-1.72527e-18
-4.88625e-20
-5.11112e-20
-4.6868e-19
-2.45764e-19
4.85498e-19
3.77444e-20
-7.67985e-06
-2.26746e-07
2.44612e-05
4.54244e-05
3.68533e-05
1.91048e-05
6.85134e-06
3.62305e-06
-9.42276e-06
-2.75624e-05
-3.37202e-05
-2.46228e-05
1.96626e-06
3.21629e-05
4.34721e-05
0.000101816
0.000182833
0.00020506
8.50821e-05
-0.000134044
-0.000306716
-0.000198392
-1.55778e-05
8.41197e-05
0.000165998
0.000202242
0.000183033
0.000113663
-1.88179e-05
-0.000133847
-0.000166671
-9.33147e-05
3.9811e-05
0.000184597
0.00025159
0.00017949
7.47543e-05
-2.32994e-05
-3.69238e-05
-1.97453e-05
-5.68612e-05
1.28779e-05
0.00015707
6.40543e-05
-8.90968e-05
-8.73988e-05
-2.75658e-05
-7.86539e-08
-1.2838e-05
5.99195e-06
2.09587e-05
-6.7424e-06
-3.74573e-05
-6.30503e-05
-9.84642e-05
5.59829e-05
0.000313133
0.000226225
-0.000606393
-0.00190348
-0.0027919
-0.00183302
-0.000170641
0.000547077
0.000959312
0.000994328
0.000635884
2.84873e-05
-0.000781772
-0.00146134
-0.0016606
-0.0012827
-0.000569894
0.00019067
0.00066307
0.000445363
-4.53152e-06
-0.000199348
-0.00015285
-5.45416e-05
-5.3501e-05
-1.332e-05
7.58206e-05
-3.15543e-06
-0.000119408
-0.000116009
-5.38764e-05
-1.58299e-05
-2.07708e-05
4.23663e-06
6.45456e-05
8.51854e-05
6.7734e-05
3.86756e-05
3.09151e-05
0.000105979
0.000256391
0.000327342
7.20711e-05
-0.00063451
-0.00139833
-0.00127224
-0.000348397
0.000119024
0.00039609
0.000494264
0.00033627
6.45596e-05
-0.000281353
-0.000612155
-0.000797461
-0.00074869
-0.000498557
-0.000189684
5.89385e-05
0.000133833
2.56998e-05
-6.41389e-05
-8.00437e-05
-5.2712e-05
8.74379e-06
1.57167e-05
1.58419e-05
-7.68787e-07
-1.27094e-05
-1.47206e-05
-1.08111e-05
-2.60019e-07
2.43744e-06
1.9859e-06
8.30042e-06
1.4499e-05
1.76167e-05
2.25811e-05
3.21905e-05
4.57307e-05
6.43072e-05
8.19522e-05
9.23066e-05
7.90939e-06
-0.000233428
-0.000249276
-5.44502e-05
-2.09044e-05
6.34294e-05
0.000102643
4.69822e-05
1.30969e-05
-4.86388e-06
-2.85142e-05
-5.70659e-05
-8.30438e-05
-7.5901e-05
-4.11425e-05
-1.26873e-05
2.901e-06
6.70509e-06
1.71052e-06
-8.08059e-06
6.76718e-06
3.62918e-05
4.10628e-05
5.46621e-06
7.02716e-07
3.50565e-05
3.77962e-05
1.1061e-05
-7.78205e-07
2.54979e-06
4.00142e-06
2.18191e-06
-2.25034e-06
-7.68439e-06
-1.65024e-05
-2.10143e-05
-1.64738e-05
-6.20328e-06
-3.39468e-06
-2.99141e-06
2.62965e-05
-3.25168e-05
2.89088e-05
0.00012752
2.67854e-06
7.8257e-05
0.000119885
3.25718e-05
3.05331e-07
2.38227e-06
-3.85172e-06
-5.84625e-06
-7.92581e-06
-8.85013e-06
6.43972e-07
8.08627e-06
4.84607e-06
1.78315e-06
-1.91531e-06
-7.35561e-06
1.8941e-05
4.04913e-05
5.11385e-05
1.51803e-05
-3.48146e-06
3.26695e-05
4.43426e-05
1.79305e-05
-1.29849e-06
-1.34118e-06
2.50884e-06
4.01244e-06
-2.61336e-06
-1.39233e-05
-2.74741e-05
-3.24048e-05
-2.46328e-05
-9.7235e-06
7.02722e-07
-8.77509e-06
-8.00736e-06
4.31673e-07
1.87786e-05
0.000165954
2.70303e-05
6.93516e-05
0.000148991
5.23444e-05
1.30944e-06
-1.30494e-06
-1.12284e-05
-1.50182e-05
-8.28143e-06
-2.97804e-06
1.90239e-06
9.10174e-06
1.0781e-05
4.27903e-06
-2.61303e-06
-9.65411e-06
8.0577e-06
2.52243e-05
4.30216e-05
2.17097e-05
-3.5622e-06
1.52326e-05
2.84384e-05
1.53497e-05
9.86073e-07
-2.15823e-06
-4.63869e-07
1.99489e-06
-3.19946e-07
-6.52284e-06
-1.35363e-05
-1.53465e-05
-9.87327e-06
-3.54952e-06
8.7546e-07
2.26356e-06
-1.01939e-05
3.76615e-07
-5.90594e-06
8.82582e-05
3.19731e-05
2.88912e-05
0.000103134
4.13752e-05
2.23763e-06
-9.87412e-07
-4.42661e-06
-5.23683e-06
-2.2036e-06
-2.18503e-07
-1.63649e-07
9.83917e-07
5.47514e-06
5.67236e-06
5.13421e-07
-5.38768e-06
3.99905e-07
1.00771e-05
2.38859e-05
1.78372e-05
-2.91687e-07
3.86755e-06
1.16549e-05
8.611e-06
2.35432e-06
-2.52717e-07
-9.90255e-07
-1.00117e-06
-8.01135e-07
-8.58208e-07
-1.64014e-06
-2.71819e-06
-1.86806e-06
-3.63564e-07
-2.5974e-07
1.43161e-06
-5.17556e-07
2.16982e-07
-3.86519e-06
2.25418e-05
1.49908e-05
3.97235e-06
3.8212e-05
1.49189e-05
3.6575e-07
-7.53964e-07
-8.76521e-07
-4.78163e-07
-2.96046e-08
1.17176e-07
-1.32138e-07
-7.48721e-07
-2.32843e-07
2.18834e-06
1.52174e-06
-1.40779e-06
-2.33611e-08
3.35908e-06
8.06262e-06
9.3285e-06
1.25323e-06
9.15644e-07
3.4107e-06
2.91459e-06
1.03871e-06
4.29241e-07
1.46058e-07
-6.78031e-07
-1.41318e-06
-9.83177e-07
-2.5147e-07
-2.88558e-07
-2.38263e-07
1.05822e-07
8.09967e-08
-3.48995e-08
2.13828e-07
3.88661e-07
-9.54143e-07
2.45731e-06
3.28351e-06
-9.85391e-07
7.40926e-06
1.75617e-06
-7.75831e-07
-4.70226e-07
-1.28092e-07
6.93883e-08
5.02378e-09
6.6832e-08
2.6347e-07
7.76983e-08
-7.05453e-08
6.32125e-09
6.01187e-07
-4.79362e-08
5.69345e-07
1.16388e-06
1.60599e-06
2.58813e-06
5.92447e-07
4.03866e-07
7.37964e-07
2.38963e-07
-2.26246e-07
-1.23007e-07
1.02713e-07
4.14583e-08
-6.09927e-07
-1.35173e-06
-7.89145e-07
-9.09983e-08
-9.16939e-09