/*--------------------------------*- C++ -*----------------------------------*\
| =========                 |                                                 |
| \\      /  F ield         | OpenFOAM: The Open Source CFD Toolbox           |
|  \\    /   O peration     | Version:  5.0                                   |
|   \\  /    A nd           | Web:      www.OpenFOAM.org                      |
|    \\/     M anipulation  |                                                 |
\*---------------------------------------------------------------------------*/
FoamFile
{
    version     2.0;
    format      ascii;
    class       volVectorField;
    location    "50.4676134421789371";
    object      SGSDiffMean;
}
// * * * * * * * * * * * * * * * * * * * * * * * * * * * * * * * * * * * * * //

dimensions      [0 3 -3 0 0 0 0];

internalField   nonuniform List<vector> 
60000
(
(6.09686e-13 -6.32529e-12 4.0331e-10)
(-2.39747e-10 1.03455e-10 3.17117e-10)
(-3.03812e-10 1.3579e-10 1.51226e-10)
(-1.91621e-10 8.87883e-11 1.70188e-11)
(-6.77012e-11 3.33711e-11 -4.09262e-11)
(-2.80202e-12 1.83185e-13 -6.03528e-11)
(2.65649e-11 -1.77771e-11 -7.12844e-11)
(6.18686e-11 -3.44431e-11 -6.09413e-11)
(1.36473e-10 -6.55872e-11 -1.47702e-11)
(2.34611e-10 -1.11797e-10 8.45248e-11)
(2.6219e-10 -1.307e-10 2.05893e-10)
(1.56932e-10 -8.608e-11 2.39258e-10)
(7.93542e-11 -4.82257e-11 1.6444e-10)
(1.04866e-10 -5.14406e-11 7.50642e-11)
(1.24182e-10 -5.03317e-11 -8.56458e-12)
(8.98399e-11 -3.00342e-11 -1.08821e-10)
(5.84808e-11 -3.12115e-11 -2.41923e-10)
(1.39136e-10 -1.05475e-10 -4.34712e-10)
(4.8946e-10 -3.30011e-10 -7.57914e-10)
(1.2733e-09 -7.43574e-10 -1.0415e-09)
(2.51094e-09 -1.30208e-09 -9.24736e-10)
(3.98176e-09 -1.91184e-09 -3.70611e-10)
(5.41591e-09 -2.54504e-09 4.67505e-10)
(7.26711e-09 -3.47075e-09 1.45522e-09)
(1.08257e-08 -5.29161e-09 2.30761e-09)
(1.60168e-08 -7.84256e-09 3.03262e-09)
(1.95419e-08 -9.47909e-09 3.88861e-09)
(1.64775e-08 -7.92207e-09 4.55279e-09)
(8.55043e-09 -4.09079e-09 3.57165e-09)
(3.46927e-09 -1.60487e-09 1.10695e-09)
(2.68985e-09 -1.17778e-09 -7.66608e-10)
(3.07547e-09 -1.36236e-09 -1.58325e-09)
(3.30213e-09 -1.50753e-09 -2.01579e-09)
(2.56259e-09 -1.22727e-09 -2.40705e-09)
(6.82967e-10 -4.40026e-10 -2.34585e-09)
(-3.52205e-10 2.43116e-11 -1.34344e-09)
(-2.50895e-12 -2.66723e-11 -2.77378e-10)
(2.98864e-10 -1.18911e-10 1.6301e-10)
(3.37777e-10 -1.42615e-10 3.11746e-10)
(2.31767e-10 -1.06485e-10 3.888e-10)
(2.98796e-08 -1.02042e-08 3.63724e-08)
(5.68251e-10 2.60944e-09 2.09616e-08)
(-1.7552e-08 9.06959e-09 4.52787e-09)
(-1.77421e-08 7.84447e-09 -4.43502e-09)
(-8.82569e-09 3.68686e-09 -8.7713e-09)
(-8.82916e-10 3.53043e-10 -9.60118e-09)
(3.27922e-09 -1.6809e-09 -7.37889e-09)
(6.89205e-09 -3.26328e-09 -2.0684e-09)
(1.51064e-08 -6.88526e-09 7.35176e-09)
(2.92067e-08 -1.34568e-08 2.04009e-08)
(4.3272e-08 -2.02082e-08 3.27152e-08)
(4.07745e-08 -1.8816e-08 3.18634e-08)
(2.38173e-08 -1.12154e-08 1.50229e-08)
(1.47849e-08 -6.9911e-09 -2.3884e-09)
(1.71535e-08 -7.39064e-09 -1.35693e-08)
(2.35906e-08 -1.05677e-08 -2.26419e-08)
(3.36427e-08 -1.695e-08 -3.2271e-08)
(5.1415e-08 -2.76248e-08 -4.30304e-08)
(7.48543e-08 -3.91195e-08 -5.57745e-08)
(1.00265e-07 -4.86275e-08 -5.58809e-08)
(1.33183e-07 -5.97565e-08 -2.04511e-08)
(1.88248e-07 -8.26212e-08 4.33853e-08)
(2.76627e-07 -1.30392e-07 1.04141e-07)
(4.34122e-07 -2.20589e-07 1.39038e-07)
(7.0336e-07 -3.66704e-07 1.39071e-07)
(1.06062e-06 -5.48183e-07 1.15269e-07)
(1.35158e-06 -6.78618e-07 9.82632e-08)
(1.33419e-06 -6.44344e-07 1.07719e-07)
(9.3392e-07 -4.33007e-07 1.06346e-07)
(4.6654e-07 -2.10214e-07 4.26091e-08)
(2.6397e-07 -1.18674e-07 -4.71158e-08)
(2.5615e-07 -1.14534e-07 -1.03262e-07)
(2.92744e-07 -1.30172e-07 -1.26763e-07)
(2.99604e-07 -1.33102e-07 -1.38839e-07)
(2.04959e-07 -9.07098e-08 -1.34241e-07)
(4.72882e-08 -2.41896e-08 -8.713e-08)
(-5.27127e-09 -3.86578e-10 -1.76616e-08)
(2.18547e-08 -8.48297e-09 2.1702e-08)
(4.15591e-08 -1.56641e-08 3.58036e-08)
(4.57261e-08 -1.74048e-08 4.07973e-08)
(1.78257e-07 -5.47966e-08 1.35577e-07)
(1.12061e-07 -2.64077e-08 9.3332e-08)
(3.79661e-08 -7.18713e-09 1.85839e-08)
(-9.68797e-09 3.6073e-10 -2.57825e-08)
(-3.22135e-08 6.80377e-09 -4.21842e-08)
(-2.20405e-08 8.33222e-09 -5.51208e-08)
(2.15353e-09 1.34015e-10 -4.51887e-08)
(1.92396e-08 -8.43796e-09 -1.64339e-08)
(4.37543e-08 -1.98197e-08 2.52521e-08)
(8.36728e-08 -3.43465e-08 7.24983e-08)
(1.30516e-07 -5.47176e-08 1.11351e-07)
(1.47647e-07 -6.0336e-08 1.17926e-07)
(1.07083e-07 -4.33953e-08 7.1866e-08)
(5.77618e-08 -2.65397e-08 -1.44811e-10)
(6.32142e-08 -3.04229e-08 -5.10885e-08)
(1.03842e-07 -5.18743e-08 -8.23647e-08)
(1.51277e-07 -8.19194e-08 -1.13245e-07)
(1.76469e-07 -1.0149e-07 -1.33016e-07)
(1.58917e-07 -8.07511e-08 -1.42129e-07)
(1.2858e-07 -4.08939e-08 -1.10808e-07)
(1.26833e-07 -2.72066e-08 -5.52034e-09)
(1.9281e-07 -6.04738e-08 1.56153e-07)
(3.07478e-07 -1.39596e-07 2.82661e-07)
(4.7363e-07 -2.68072e-07 3.0361e-07)
(7.06779e-07 -4.24019e-07 2.3082e-07)
(9.5681e-07 -5.60031e-07 1.13087e-07)
(1.12652e-06 -6.13287e-07 1.75906e-08)
(1.13255e-06 -5.59124e-07 -1.62908e-08)
(9.27338e-07 -4.1048e-07 -2.6847e-09)
(5.77083e-07 -2.3325e-07 -2.27212e-09)
(3.2156e-07 -1.3387e-07 -6.03216e-08)
(2.9624e-07 -1.33112e-07 -1.40851e-07)
(3.64869e-07 -1.5613e-07 -1.90126e-07)
(4.18126e-07 -1.7041e-07 -2.09183e-07)
(3.94264e-07 -1.52919e-07 -2.14759e-07)
(2.28247e-07 -8.70974e-08 -1.84648e-07)
(2.10046e-08 -1.76748e-08 -8.62676e-08)
(3.22198e-08 -2.41089e-08 3.1938e-08)
(1.35822e-07 -5.42681e-08 1.00855e-07)
(1.84726e-07 -6.38353e-08 1.33072e-07)
(8.46165e-08 -4.41284e-09 1.02821e-07)
(4.17616e-08 1.32315e-08 8.01074e-08)
(-8.40312e-09 1.68682e-08 2.02374e-08)
(-3.59078e-08 9.65467e-09 -3.08223e-08)
(-6.45099e-08 1.38174e-08 -4.87579e-08)
(-8.27836e-08 2.89282e-08 -6.63965e-08)
(-5.43119e-08 2.62068e-08 -6.88359e-08)
(-1.54802e-08 9.90292e-09 -3.28528e-08)
(9.22612e-09 -4.14628e-09 1.05366e-08)
(2.90034e-08 -7.9897e-09 4.30782e-08)
(4.12292e-08 -9.00642e-09 5.73286e-08)
(4.23679e-08 -8.50215e-09 6.1129e-08)
(1.51485e-08 2.01848e-09 4.19764e-08)
(-2.31933e-08 1.18399e-08 -4.20418e-09)
(-9.82601e-09 1.06926e-09 -4.20629e-08)
(4.04025e-08 -2.45134e-08 -6.25798e-08)
(8.10067e-08 -4.93948e-08 -8.23906e-08)
(7.60468e-08 -5.19565e-08 -9.71535e-08)
(7.89672e-09 -4.22605e-09 -1.00019e-07)
(-4.71759e-08 5.24753e-08 -6.91265e-08)
(-3.5754e-08 5.28854e-08 5.33838e-09)
(1.7854e-08 1.58581e-08 1.0401e-07)
(8.24822e-08 -3.20462e-08 1.82104e-07)
(1.39217e-07 -9.21459e-08 1.7933e-07)
(1.9414e-07 -1.47107e-07 1.16708e-07)
(2.29463e-07 -1.67727e-07 3.47732e-08)
(2.23767e-07 -1.39017e-07 -2.56855e-08)
(1.82659e-07 -8.26204e-08 -5.19836e-08)
(9.90533e-08 -1.38693e-08 -5.65523e-08)
(-4.22101e-08 5.99899e-08 -5.28522e-08)
(-1.6299e-07 9.81238e-08 -5.75734e-08)
(-1.45108e-07 7.07567e-08 -7.74908e-08)
(-3.85428e-08 2.34908e-08 -9.76391e-08)
(3.67789e-08 2.14316e-09 -1.08966e-07)
(5.18267e-08 5.46519e-09 -1.12155e-07)
(-1.24068e-08 3.04729e-08 -1.02862e-07)
(-1.29311e-07 5.98042e-08 -6.62795e-08)
(-1.21709e-07 3.79576e-08 -4.03668e-09)
(9.27096e-09 -9.66236e-09 5.21134e-08)
(8.31616e-08 -2.00632e-08 8.79753e-08)
(5.36772e-08 8.89261e-09 8.47925e-08)
(2.69436e-08 2.89772e-08 8.24026e-08)
(-2.20449e-08 3.01074e-08 3.70675e-08)
(-5.89563e-08 2.22137e-08 -1.65021e-08)
(-9.04948e-08 2.43644e-08 -4.24253e-08)
(-1.2832e-07 4.44757e-08 -5.7896e-08)
(-1.24201e-07 5.35802e-08 -7.83934e-08)
(-7.23222e-08 3.74213e-08 -5.8629e-08)
(-2.40084e-08 1.11469e-08 -8.1588e-09)
(4.97222e-09 -4.77406e-10 2.8058e-08)
(1.67211e-08 2.19802e-09 3.72185e-08)
(1.535e-08 3.98131e-09 3.25233e-08)
(3.45784e-09 7.05044e-09 2.52181e-08)
(-2.41925e-08 1.38713e-08 2.73429e-09)
(-2.49921e-08 7.71493e-09 -2.87848e-08)
(1.85829e-08 -1.64243e-08 -5.19252e-08)
(6.32714e-08 -4.46998e-08 -7.41353e-08)
(5.64285e-08 -4.5479e-08 -8.75233e-08)
(-4.63923e-08 1.94595e-08 -8.67103e-08)
(-1.44262e-07 1.03139e-07 -6.51834e-08)
(-1.01933e-07 9.06338e-08 -1.84739e-09)
(-2.35051e-08 3.24381e-08 6.34514e-08)
(3.03549e-08 -6.70259e-09 1.15271e-07)
(6.35038e-08 -4.31925e-08 1.13726e-07)
(7.28347e-08 -6.45509e-08 6.41325e-08)
(6.10828e-08 -5.71491e-08 1.51705e-08)
(4.31928e-08 -3.40074e-08 -8.55434e-09)
(2.99196e-08 -1.15446e-08 -1.56999e-08)
(1.37902e-08 9.72889e-09 -1.96841e-08)
(-3.27848e-08 3.9927e-08 -2.60639e-08)
(-1.27717e-07 7.98408e-08 -3.31894e-08)
(-1.95835e-07 9.67136e-08 -3.91879e-08)
(-1.69265e-07 7.82669e-08 -4.6951e-08)
(-9.8278e-08 5.36716e-08 -5.90864e-08)
(-4.76399e-08 4.37892e-08 -7.09365e-08)
(-4.93655e-08 4.75962e-08 -7.21463e-08)
(-1.18639e-07 6.32626e-08 -6.03947e-08)
(-1.68302e-07 6.13315e-08 -3.32692e-08)
(-8.24221e-08 1.88782e-08 8.6677e-09)
(2.31226e-08 -6.22628e-09 5.38738e-08)
(3.64711e-08 -1.96048e-10 5.5358e-08)
(3.85661e-08 2.45062e-08 7.63927e-08)
(1.03747e-08 2.58219e-08 5.41508e-08)
(-2.26395e-08 1.31141e-08 9.28268e-09)
(-5.41021e-08 1.10426e-08 -2.31593e-08)
(-1.03127e-07 3.23067e-08 -3.97166e-08)
(-1.44058e-07 5.77954e-08 -6.62847e-08)
(-1.3412e-07 6.27931e-08 -8.24503e-08)
(-8.31729e-08 3.86673e-08 -4.00822e-08)
(-2.73746e-08 1.05027e-08 1.62088e-08)
(3.6035e-09 4.37992e-09 3.25332e-08)
(7.39972e-09 6.43823e-09 2.24117e-08)
(3.43933e-09 4.80483e-09 1.28541e-08)
(-3.54111e-09 4.90595e-09 5.84305e-09)
(-7.03343e-09 1.18966e-09 -1.39413e-08)
(2.3663e-08 -2.184e-08 -4.6361e-08)
(7.67553e-08 -5.99685e-08 -8.00778e-08)
(7.95377e-08 -6.45901e-08 -8.25964e-08)
(-3.08443e-08 5.18521e-09 -6.23457e-08)
(-2.0357e-07 1.27108e-07 -5.22754e-08)
(-1.87543e-07 1.41613e-07 -7.72857e-09)
(-5.00597e-08 4.87946e-08 4.64622e-08)
(1.38073e-08 6.48473e-10 7.44688e-08)
(3.39793e-08 -2.03339e-08 6.9135e-08)
(2.08261e-08 -1.90134e-08 2.40854e-08)
(7.34556e-09 -9.33269e-09 2.59771e-09)
(4.43915e-09 -5.69537e-09 -9.37839e-10)
(4.85032e-09 -1.88097e-09 -1.70134e-09)
(5.43633e-09 2.65263e-09 -1.90016e-09)
(4.19562e-09 6.64392e-09 -3.01737e-09)
(-8.59218e-09 1.52655e-08 -7.13889e-09)
(-5.32092e-08 3.35567e-08 -1.28957e-08)
(-1.11828e-07 5.38129e-08 -1.5356e-08)
(-1.38216e-07 6.5016e-08 -2.05412e-08)
(-1.10451e-07 6.07322e-08 -3.68708e-08)
(-6.52898e-08 4.87301e-08 -5.1247e-08)
(-6.02676e-08 4.21326e-08 -5.18473e-08)
(-9.60449e-08 3.92116e-08 -4.47407e-08)
(-9.43976e-08 2.07011e-08 -2.82969e-08)
(-2.03067e-08 -5.1535e-09 1.05024e-08)
(2.65141e-09 -4.29731e-09 1.48589e-08)
(2.59544e-08 1.20872e-08 4.69506e-08)
(2.10846e-08 1.96754e-08 4.64896e-08)
(7.33693e-09 6.8432e-09 2.17807e-08)
(-6.46418e-09 -2.09377e-09 -8.92798e-10)
(-3.19679e-08 5.69845e-09 -1.45344e-08)
(-7.93657e-08 2.91655e-08 -3.35462e-08)
(-1.22332e-07 5.21997e-08 -6.82834e-08)
(-1.39673e-07 6.14268e-08 -6.76514e-08)
(-1.04714e-07 4.24525e-08 -7.27701e-09)
(-3.36392e-08 1.75559e-08 3.49259e-08)
(-1.31746e-09 8.49514e-09 2.25167e-08)
(7.31723e-10 4.53025e-09 8.30773e-09)
(1.80302e-10 2.51058e-09 4.1243e-09)
(3.47027e-09 -2.65771e-09 -8.11458e-09)
(3.55668e-08 -3.20132e-08 -5.17533e-08)
(9.09209e-08 -7.75045e-08 -9.50245e-08)
(8.5585e-08 -7.14382e-08 -7.18981e-08)
(8.82316e-10 -9.41148e-09 -2.6717e-08)
(-1.77945e-07 1.05825e-07 -1.24272e-08)
(-2.68908e-07 1.78081e-07 -5.95909e-11)
(-9.72156e-08 7.68849e-08 4.06296e-08)
(9.53905e-10 4.49888e-09 4.47421e-08)
(1.01847e-08 -4.35463e-09 2.87499e-08)
(3.19696e-09 -2.33502e-09 6.58963e-09)
(1.74234e-09 -5.24428e-09 5.31402e-10)
(3.16497e-09 -5.39702e-09 -1.74028e-09)
(4.47505e-09 -7.42521e-10 -1.177e-09)
(4.74048e-09 2.94218e-09 -3.20967e-10)
(4.82155e-09 4.26348e-09 2.62236e-10)
(4.30674e-09 3.27515e-09 3.52191e-10)
(3.63656e-09 3.2349e-09 -5.68836e-10)
(-1.3109e-08 1.17287e-08 -1.6586e-09)
(-7.05646e-08 3.73423e-08 -1.41201e-09)
(-1.27631e-07 6.35478e-08 -9.47698e-09)
(-1.11456e-07 6.00907e-08 -2.88675e-08)
(-6.27611e-08 3.96375e-08 -3.93819e-08)
(-4.67338e-08 2.50671e-08 -3.8907e-08)
(-5.45334e-08 1.41627e-08 -3.82079e-08)
(-4.02951e-08 -5.0873e-10 -2.55201e-08)
(-1.97023e-08 -2.19724e-09 -1.77967e-08)
(-8.55462e-11 5.39476e-09 1.61343e-08)
(9.0539e-09 1.1103e-08 2.57624e-08)
(7.99106e-09 4.55144e-09 1.57186e-08)
(6.08152e-09 -2.46847e-09 5.43477e-09)
(3.87458e-09 -3.52095e-09 4.14165e-10)
(-7.06698e-09 1.82536e-09 -6.04491e-09)
(-3.65408e-08 1.41512e-08 -2.75785e-08)
(-9.55044e-08 3.945e-08 -5.53502e-08)
(-1.64379e-07 6.72451e-08 -3.17581e-08)
(-1.3269e-07 5.8079e-08 2.67528e-08)
(-3.64086e-08 2.57539e-08 3.39044e-08)
(-3.76865e-09 7.89852e-09 1.19234e-08)
(1.0121e-09 4.82603e-09 6.20961e-09)
(1.71393e-08 -7.71716e-09 -1.73878e-08)
(6.66131e-08 -5.50103e-08 -8.05367e-08)
(9.66516e-08 -8.66004e-08 -1.00664e-07)
(6.55386e-08 -5.85116e-08 -5.11887e-08)
(1.45552e-08 -1.11619e-08 -6.27295e-09)
(-8.6817e-08 5.75154e-08 1.35043e-08)
(-2.46855e-07 1.54192e-07 1.80729e-08)
(-1.59294e-07 1.07568e-07 4.0429e-08)
(-1.37307e-08 1.04794e-08 3.28908e-08)
(1.25408e-09 3.9123e-11 1.05119e-08)
(8.84156e-10 -4.96289e-09 7.52931e-09)
(1.4243e-09 -1.22847e-08 4.69558e-10)
(5.27854e-09 -7.04931e-09 -1.25748e-09)
(5.95745e-09 -4.39967e-10 -2.38239e-10)
(5.08105e-09 2.64301e-09 1.70788e-10)
(5.0616e-09 3.5943e-09 7.18688e-10)
(5.60883e-09 3.49911e-09 1.40244e-09)
(4.88503e-09 2.1799e-09 1.45798e-09)
(4.34031e-09 1.09086e-09 1.14336e-09)
(-3.84207e-09 6.7337e-09 1.77372e-09)
(-5.12253e-08 2.98933e-08 9.56471e-10)
(-1.03476e-07 5.26122e-08 -1.0535e-08)
(-8.70005e-08 4.45252e-08 -2.59459e-08)
(-4.54333e-08 2.42185e-08 -3.07616e-08)
(-2.91571e-08 1.15212e-08 -3.30828e-08)
(-2.92981e-08 3.04964e-09 -3.64854e-08)
(-2.14014e-08 1.76674e-09 -2.91681e-08)
(-1.9628e-08 4.18362e-09 -6.65806e-09)
(-8.75108e-09 7.28235e-09 1.06101e-08)
(-3.496e-10 2.41905e-09 9.50847e-09)
(4.50445e-09 -2.5873e-09 4.85996e-09)
(6.66585e-09 -3.26199e-09 2.72533e-09)
(7.22597e-09 -2.8743e-09 1.10906e-09)
(6.23392e-09 -3.1079e-09 -4.55492e-09)
(-1.12741e-08 3.79e-09 -1.90899e-08)
(-9.16386e-08 3.86184e-08 -2.61435e-08)
(-1.98023e-07 8.40955e-08 6.44455e-09)
(-1.35193e-07 7.02804e-08 3.33316e-08)
(-2.56512e-08 2.34242e-08 1.6793e-08)
(2.2295e-09 6.18773e-09 2.85739e-09)
(3.54792e-08 -1.65779e-08 -3.2956e-08)
(7.8223e-08 -6.17586e-08 -8.218e-08)
(6.567e-08 -6.23168e-08 -6.42551e-08)
(2.92088e-08 -3.0278e-08 -2.28204e-08)
(8.23002e-09 -5.40516e-09 -1.40717e-09)
(-2.05477e-08 2.12566e-08 1.04482e-08)
(-1.24731e-07 8.39066e-08 2.11779e-08)
(-1.73492e-07 1.07976e-07 3.65044e-08)
(-3.95677e-08 2.15947e-08 3.12987e-08)
(-1.74459e-09 3.00694e-11 5.41724e-09)
(-2.0781e-09 -7.62208e-09 3.40781e-09)
(1.22149e-09 -1.18156e-08 4.31637e-10)
(5.77936e-09 -5.00544e-09 1.28333e-09)
(6.32338e-09 -2.25506e-11 1.38126e-09)
(5.49974e-09 2.10953e-09 5.52267e-10)
(5.44326e-09 2.58139e-09 9.10164e-10)
(5.92446e-09 2.49755e-09 2.04925e-09)
(5.43539e-09 2.32553e-09 2.54703e-09)
(3.32257e-09 1.6056e-09 1.75039e-09)
(1.70807e-09 9.38374e-10 8.4769e-10)
(-3.0079e-09 4.58406e-09 9.49678e-10)
(-3.05821e-08 1.85365e-08 -2.00511e-09)
(-5.87238e-08 2.95665e-08 -1.16743e-08)
(-4.83045e-08 2.30045e-08 -1.91363e-08)
(-2.63751e-08 1.22852e-08 -2.33691e-08)
(-1.83135e-08 5.84701e-09 -3.01633e-08)
(-1.40876e-08 3.79016e-09 -2.22524e-08)
(-2.35988e-08 4.19258e-09 -1.5814e-08)
(-2.03468e-08 4.90764e-09 1.6188e-09)
(-5.04971e-09 -1.32585e-10 1.04538e-08)
(5.52955e-09 -5.60988e-09 7.97217e-09)
(6.7613e-09 -4.8991e-09 2.71121e-09)
(4.99579e-09 -2.605e-09 -1.67809e-11)
(4.62719e-09 -2.28645e-09 -1.48416e-09)
(4.33876e-09 -2.44615e-09 -3.63523e-09)
(-1.03569e-08 5.37745e-09 -6.76614e-09)
(-1.03534e-07 4.68895e-08 -4.74207e-10)
(-1.96279e-07 9.30323e-08 1.8339e-08)
(-7.92304e-08 5.15633e-08 9.34368e-09)
(-4.93339e-11 6.95364e-09 -5.47653e-09)
(2.49234e-08 -1.32328e-08 -2.58234e-08)
(3.51046e-08 -2.9193e-08 -3.69751e-08)
(1.88318e-08 -2.10752e-08 -1.95292e-08)
(5.90396e-09 -8.21296e-09 -5.48699e-09)
(1.85431e-09 -1.45796e-09 -5.699e-10)
(-1.93782e-09 6.83063e-09 3.28345e-09)
(-3.17552e-08 3.04799e-08 1.00348e-08)
(-1.05326e-07 6.91798e-08 2.10513e-08)
(-6.24836e-08 2.93664e-08 2.26727e-08)
(-7.28728e-09 -9.53787e-10 4.27857e-09)
(-1.7733e-09 -4.77014e-09 -7.74409e-11)
(1.45909e-09 -5.23218e-09 9.93706e-10)
(5.26381e-09 -2.71272e-09 3.47827e-09)
(7.03457e-09 1.01429e-10 2.8119e-09)
(6.74029e-09 1.82599e-09 4.37817e-10)
(7.23094e-09 2.18006e-09 9.41825e-10)
(8.20848e-09 2.25514e-09 3.44643e-09)
(7.22749e-09 2.30586e-09 4.69947e-09)
(4.01761e-09 1.90809e-09 3.29365e-09)
(1.14876e-09 9.75365e-10 1.02877e-09)
(2.1726e-10 4.92788e-10 1.58434e-10)
(-1.85538e-09 2.08331e-09 -1.35398e-10)
(-1.10033e-08 6.57181e-09 -2.35642e-09)
(-1.95438e-08 9.56028e-09 -6.38357e-09)
(-1.71983e-08 8.19959e-09 -1.03085e-08)
(-1.15491e-08 5.60956e-09 -1.63061e-08)
(-5.83376e-09 2.92529e-09 -1.04785e-08)
(-1.55225e-08 3.32647e-09 -1.31459e-08)
(-1.7769e-08 1.57757e-09 -1.04162e-09)
(-6.56725e-10 -5.13243e-09 1.5191e-08)
(8.91946e-09 -9.31906e-09 1.42102e-08)
(5.23011e-09 -5.25876e-09 3.6769e-09)
(1.86977e-09 -1.42365e-09 -1.61127e-09)
(1.27271e-09 -7.85977e-10 -1.91249e-09)
(9.30104e-10 -6.68507e-10 -1.15982e-09)
(5.16013e-10 -1.05356e-10 -7.5668e-10)
(-1.53975e-08 8.78087e-09 5.10951e-10)
(-1.08829e-07 5.20398e-08 9.40421e-09)
(-1.15012e-07 6.17151e-08 3.38626e-09)
(-1.11281e-08 1.15378e-08 -8.15732e-09)
(7.18814e-09 -3.83108e-09 -9.19677e-09)
(7.81328e-09 -6.80297e-09 -1.07997e-08)
(4.28831e-09 -5.54646e-09 -6.26749e-09)
(1.16954e-09 -2.15836e-09 -1.64229e-09)
(2.62934e-10 -3.31048e-10 -1.76022e-10)
(8.75299e-11 1.74068e-09 4.31457e-10)
(-4.16653e-09 9.819e-09 2.40124e-09)
(-3.40254e-08 2.98585e-08 6.04458e-09)
(-5.17669e-08 2.32698e-08 7.39167e-09)
(-1.56927e-08 -1.88522e-09 2.09256e-09)
(-3.99996e-10 -2.40307e-09 -1.10223e-10)
(2.04075e-09 -2.49639e-09 1.89279e-09)
(5.72385e-09 -2.57357e-09 5.61211e-09)
(7.17773e-09 1.35776e-11 3.42432e-09)
(6.75522e-09 1.42536e-09 -4.35145e-10)
(7.84001e-09 1.59016e-09 4.40441e-10)
(1.01434e-08 2.07519e-09 4.94589e-09)
(1.04062e-08 2.86384e-09 8.45704e-09)
(6.60671e-09 2.71295e-09 7.04097e-09)
(1.98871e-09 1.44584e-09 2.63469e-09)
(1.83057e-10 3.72341e-10 2.99166e-10)
(-1.17429e-10 3.04083e-10 1.53688e-11)
(-1.25724e-09 8.97516e-10 -2.58888e-10)
(-3.09017e-09 1.63785e-09 -1.00318e-09)
(-4.0914e-09 2.21729e-09 -2.2997e-09)
(-3.78086e-09 2.55315e-09 -5.11959e-09)
(-1.62292e-09 1.83493e-09 -4.1928e-09)
(-6.10665e-09 2.28692e-09 -7.45322e-09)
(-7.71175e-09 -1.03184e-09 -2.56407e-10)
(3.45756e-09 -7.63625e-09 1.39981e-08)
(6.18356e-09 -7.54104e-09 1.22614e-08)
(7.79059e-10 -2.3187e-09 3.18371e-09)
(-8.20532e-10 -1.10683e-10 -8.81981e-10)
(4.74532e-11 -1.47847e-10 -1.26819e-09)
(1.97799e-10 -1.43725e-10 -5.57561e-10)
(7.38489e-11 -1.38236e-11 -1.617e-10)
(-6.5489e-10 6.40459e-10 9.32824e-11)
(-2.66333e-08 1.3837e-08 4.40573e-09)
(-7.86779e-08 3.90173e-08 4.73939e-09)
(-2.6102e-08 1.51511e-08 -6.05644e-09)
(2.43714e-09 -8.67863e-10 -4.2854e-09)
(4.40301e-09 -2.67111e-09 -6.68065e-09)
(5.28688e-09 -4.20793e-09 -6.04901e-09)
(2.65489e-09 -2.89438e-09 -8.27909e-10)
(5.99653e-10 -8.04215e-10 2.29338e-10)
(1.60971e-10 6.87917e-10 -3.65401e-10)
(-4.42316e-10 3.28554e-09 -2.28722e-10)
(-8.51611e-09 1.35777e-08 2.06235e-10)
(-2.63558e-08 1.39198e-08 -9.08294e-10)
(-1.70174e-08 -2.29393e-09 -4.90981e-10)
(-5.70134e-10 -5.945e-09 2.38031e-09)
(3.55342e-09 -4.8352e-09 5.63101e-09)
(4.60129e-09 -2.46596e-09 6.52456e-09)
(4.73163e-09 1.33127e-10 2.24443e-09)
(4.72883e-09 8.49216e-10 -1.83591e-09)
(6.072e-09 5.67815e-10 -9.7713e-10)
(8.99904e-09 9.97224e-10 4.13197e-09)
(1.17812e-08 2.77497e-09 1.05542e-08)
(1.0315e-08 4.22979e-09 1.2521e-08)
(4.19019e-09 2.86406e-09 6.62791e-09)
(4.17684e-10 7.45654e-10 1.18159e-09)
(-1.55288e-10 2.19057e-10 1.17806e-10)
(-8.38936e-10 5.32975e-10 -7.19032e-11)
(-1.39607e-09 7.9079e-10 -4.42808e-10)
(-1.30589e-09 9.42287e-10 -8.79599e-10)
(-1.00769e-09 1.22953e-09 -1.77695e-09)
(-8.0565e-10 2.16972e-09 -3.31456e-09)
(-1.41264e-09 2.11166e-09 -4.56236e-09)
(-6.65763e-10 -1.26214e-09 -2.39046e-10)
(2.3147e-09 -4.58859e-09 5.93843e-09)
(9.25595e-10 -2.93055e-09 4.74386e-09)
(-2.36937e-09 -4.0152e-10 1.81638e-09)
(-3.10084e-09 4.62155e-10 2.57724e-10)
(-9.61793e-10 1.05918e-10 -7.29404e-10)
(1.69589e-10 -7.96035e-11 -7.22267e-10)
(1.94048e-10 1.16955e-11 -4.49404e-10)
(-5.43923e-11 2.29986e-10 -3.71754e-11)
(-6.78239e-09 4.47991e-09 2.17385e-09)
(-3.84923e-08 1.98465e-08 5.39051e-09)
(-2.98125e-08 1.41779e-08 -2.90715e-09)
(-8.20643e-10 2.87055e-10 -4.05248e-09)
(3.54659e-09 -1.9051e-09 -5.85592e-09)
(7.28333e-09 -5.14116e-09 -3.88805e-09)
(5.46743e-09 -5.96645e-09 5.59409e-09)
(2.53809e-09 -2.74497e-09 2.66034e-09)
(7.10647e-10 1.05028e-09 -2.43587e-09)
(-6.68395e-10 2.57346e-09 -1.958e-09)
(-4.30097e-09 9.2441e-09 -2.44979e-09)
(-1.23704e-08 1.09994e-08 -3.27611e-09)
(-9.61504e-09 -2.85411e-09 -5.89826e-10)
(-1.10407e-09 -6.88777e-09 4.18903e-09)
(2.30083e-10 -3.11309e-09 4.97991e-09)
(4.12083e-10 -9.62039e-10 3.76522e-09)
(1.62448e-09 2.24404e-10 1.98465e-10)
(2.54795e-09 2.25572e-10 -2.91863e-09)
(3.3571e-09 -4.24841e-10 -2.50082e-09)
(4.94843e-09 -5.8304e-10 8.43315e-10)
(8.43517e-09 9.24918e-10 7.19187e-09)
(1.20774e-08 4.68922e-09 1.5338e-08)
(8.41065e-09 5.76025e-09 1.40035e-08)
(1.63758e-09 2.20653e-09 4.35693e-09)
(-1.83912e-10 4.03367e-10 4.81956e-10)
(-1.01971e-09 7.00778e-10 -6.03341e-11)
(-1.78949e-09 1.03346e-09 -6.37232e-10)
(-1.57917e-09 1.08039e-09 -1.07858e-09)
(-1.05969e-09 1.46761e-09 -1.83482e-09)
(-1.29533e-09 3.02116e-09 -3.8657e-09)
(-3.17555e-10 2.84704e-09 -4.33942e-09)
(5.19552e-10 -1.26031e-10 -1.15029e-09)
(3.26898e-10 -9.10989e-10 5.4519e-10)
(-5.80335e-10 -4.0401e-10 5.51678e-10)
(-3.14302e-09 -1.19664e-10 1.23298e-09)
(-4.66848e-09 4.3637e-10 1.79312e-09)
(-2.28508e-09 2.95156e-10 5.86535e-10)
(3.47927e-11 -5.74803e-11 -6.80705e-10)
(4.2951e-10 1.58948e-11 -8.92676e-10)
(1.465e-10 3.81723e-10 -4.60326e-10)
(-2.76418e-09 3.17101e-09 6.93777e-10)
(-2.07073e-08 1.2893e-08 3.6571e-09)
(-2.64675e-08 1.20557e-08 -4.53729e-10)
(-5.01802e-09 1.20569e-09 -3.37581e-09)
(1.29786e-09 -1.47855e-09 -3.6286e-09)
(5.69323e-09 -5.20281e-09 3.16152e-09)
(6.82851e-09 -7.25984e-09 1.3291e-08)
(5.0818e-09 -4.20721e-09 5.31081e-09)
(1.92633e-09 2.23191e-10 -4.77187e-09)
(-2.07834e-09 3.97467e-09 -7.87302e-09)
(-5.50548e-09 7.61457e-09 -6.62632e-09)
(-5.78955e-09 6.8116e-09 -3.80704e-09)
(-3.2877e-09 -8.39512e-10 -2.55948e-10)
(-2.30911e-09 -1.84674e-09 1.16212e-09)
(-2.97226e-09 -1.24874e-09 2.29412e-09)
(-1.67831e-09 -5.05513e-10 2.14634e-09)
(8.28852e-10 1.91417e-11 -5.81724e-10)
(1.75901e-09 -2.27559e-10 -2.73442e-09)
(1.61356e-09 -6.7455e-10 -2.50792e-09)
(1.53284e-09 -9.29566e-10 -1.28954e-09)
(2.84463e-09 -7.3114e-10 1.04408e-09)
(7.91927e-09 2.52113e-09 9.61859e-09)
(1.16501e-08 8.05056e-09 1.95792e-08)
(5.2064e-09 5.79189e-09 1.23791e-08)
(2.35777e-10 1.06475e-09 2.08243e-09)
(-4.81634e-10 3.6091e-10 1.55892e-10)
(-1.30601e-09 7.50328e-10 -6.25624e-10)
(-1.64212e-09 1.01044e-09 -1.2942e-09)
(-1.66797e-09 1.73325e-09 -2.20679e-09)
(-1.74864e-09 2.90751e-09 -3.67807e-09)
(-9.8792e-10 3.06601e-09 -4.01059e-09)
(-2.10607e-10 7.49028e-10 -1.69787e-09)
(-1.91461e-10 -1.41711e-10 -1.15809e-10)
(-2.06795e-10 -5.46262e-11 3.45235e-11)
(-1.05524e-09 -1.46775e-10 3.2301e-10)
(-1.85052e-09 8.11071e-11 9.57007e-10)
(-1.55005e-09 1.84959e-10 1.07373e-09)
(-2.72809e-10 -1.44735e-10 1.24844e-10)
(4.44235e-10 -1.63201e-10 -8.08871e-10)
(1.53796e-10 2.76889e-10 -6.77968e-10)
(-1.18566e-09 1.97776e-09 -4.94914e-10)
(-1.06131e-08 8.40339e-09 7.22703e-11)
(-2.0232e-08 9.74381e-09 -7.03378e-10)
(-7.80396e-09 1.93606e-09 -1.7081e-09)
(-2.92566e-10 -9.05362e-10 -1.35929e-10)
(3.30641e-09 -3.69486e-09 4.88944e-09)
(4.5798e-09 -4.93875e-09 7.3746e-09)
(3.3895e-09 -2.99531e-09 3.14156e-09)
(1.6278e-09 -6.80713e-10 -2.77569e-09)
(-2.53233e-09 3.03272e-09 -1.0728e-08)
(-1.02456e-08 8.51276e-09 -1.53209e-08)
(-1.18164e-08 7.163e-09 -9.01209e-09)
(-7.36368e-09 1.1764e-09 -1.98806e-09)
(-3.94773e-09 -6.63335e-10 8.10881e-10)
(-2.20354e-09 -6.62345e-10 2.58489e-09)
(-2.97638e-11 -9.07996e-10 2.96701e-09)
(1.76769e-09 -9.78789e-10 1.49331e-10)
(1.83887e-09 -7.0761e-10 -2.16819e-09)
(1.29804e-09 -5.64125e-10 -2.11588e-09)
(9.19809e-10 -6.48777e-10 -1.47257e-09)
(9.50305e-10 -7.93941e-10 -1.14915e-09)
(3.00313e-09 4.08283e-10 1.91711e-09)
(8.97571e-09 6.49288e-09 1.44717e-08)
(9.20778e-09 9.80454e-09 2.03114e-08)
(2.10371e-09 3.70749e-09 7.72789e-09)
(-1.59203e-10 3.47677e-10 7.36479e-10)
(-6.22579e-10 2.6564e-10 -1.97116e-10)
(-1.01789e-09 5.70525e-10 -1.18646e-09)
(-1.38261e-09 1.3566e-09 -2.24849e-09)
(-1.9003e-09 2.27548e-09 -3.24234e-09)
(-2.19248e-09 2.85782e-09 -2.83866e-09)
(-1.68426e-09 1.18076e-09 -1.28712e-09)
(-1.12274e-09 -5.02965e-11 -2.63615e-10)
(-6.64785e-10 -2.15647e-10 -6.11545e-11)
(-3.64173e-10 -1.60325e-10 -4.56191e-11)
(-1.54706e-10 -4.50536e-11 -2.05159e-12)
(-1.41165e-10 3.83805e-11 1.54665e-10)
(-1.37733e-10 -2.84116e-12 3.03334e-10)
(1.43745e-11 -1.41793e-10 -3.36791e-10)
(-2.38521e-10 1.47395e-10 -8.41419e-10)
(-1.41572e-09 1.18121e-09 -1.00412e-09)
(-7.19803e-09 5.75096e-09 -1.67754e-09)
(-1.44476e-08 8.16396e-09 -1.64707e-09)
(-6.60925e-09 2.02157e-09 -5.87576e-10)
(2.01148e-10 -8.77405e-10 6.43607e-10)
(1.75899e-09 -2.6436e-09 1.72244e-09)
(2.42536e-09 -3.65615e-09 2.03754e-09)
(1.98471e-09 -2.09316e-09 1.25353e-09)
(1.03206e-09 -1.97604e-10 -7.34109e-10)
(-7.11335e-10 1.91694e-09 -5.90081e-09)
(-5.45007e-09 5.84339e-09 -1.3358e-08)
(-1.26827e-08 8.31826e-09 -1.46661e-08)
(-1.36924e-08 4.63127e-09 -5.66095e-09)
(-8.20346e-09 -6.72046e-10 5.20951e-09)
(-2.09905e-09 -5.60771e-09 1.27801e-08)
(1.08282e-09 -6.92668e-09 1.08055e-08)
(9.47706e-11 -3.04118e-09 2.40732e-09)
(-3.37088e-10 -6.06263e-10 -2.203e-09)
(2.51392e-10 -5.16968e-10 -2.32682e-09)
(6.95285e-10 -7.14885e-10 -1.69158e-09)
(9.18066e-10 -6.71154e-10 -1.43245e-09)
(1.28494e-09 -1.7265e-10 -8.00989e-10)
(3.94742e-09 2.9404e-09 5.07162e-09)
(8.29964e-09 9.29623e-09 1.72303e-08)
(5.44103e-09 7.8291e-09 1.47014e-08)
(7.01122e-10 1.61104e-09 3.36809e-09)
(-1.23367e-10 8.53343e-11 2.03509e-10)
(-5.05979e-10 1.15077e-10 -7.99576e-10)
(-1.03674e-09 7.4526e-10 -2.27029e-09)
(-1.2759e-09 1.1694e-09 -2.29995e-09)
(-2.02743e-09 1.95776e-09 -1.62964e-09)
(-2.40405e-09 1.10961e-09 -4.82607e-10)
(-2.55026e-09 -1.45326e-10 -9.24931e-11)
(-2.31921e-09 -7.74572e-10 -1.42329e-10)
(-1.32356e-09 -6.62212e-10 -1.79019e-10)
(-2.44448e-10 -1.53117e-10 -6.87228e-11)
(-7.25966e-13 4.12132e-12 -7.87608e-13)
(1.63067e-11 4.11401e-11 9.55362e-11)
(-1.07736e-10 2.1188e-11 -3.2412e-11)
(-9.92107e-10 1.70535e-10 -9.48652e-10)
(-3.25987e-09 1.16548e-09 -1.75213e-09)
(-7.76096e-09 4.3322e-09 -2.38686e-09)
(-1.06426e-08 6.66658e-09 -1.90366e-09)
(-4.34353e-09 1.49269e-09 -2.55622e-10)
(8.64972e-10 -2.61662e-09 7.42655e-10)
(1.68108e-09 -3.7325e-09 9.35954e-10)
(1.724e-09 -2.95859e-09 9.89159e-10)
(1.46312e-09 -1.28158e-09 1.01889e-09)
(5.24873e-10 3.93093e-10 -3.14152e-10)
(-8.87954e-10 2.61406e-09 -4.96036e-09)
(-1.76361e-09 4.86944e-09 -1.00371e-08)
(-1.54994e-09 4.69083e-09 -9.53681e-09)
(2.19365e-09 -5.00477e-10 -2.10277e-09)
(9.14651e-09 -9.85091e-09 8.45944e-09)
(9.77551e-09 -1.49965e-08 1.40239e-08)
(-3.84319e-09 -6.96123e-09 1.05709e-08)
(-1.71139e-08 2.789e-09 5.5476e-09)
(-1.58236e-08 3.72651e-09 1.81222e-09)
(-6.95756e-09 8.56513e-10 -7.29396e-10)
(-1.51942e-09 -5.13124e-10 -1.45663e-09)
(3.07017e-10 -6.54411e-10 -1.50526e-09)
(7.68079e-10 -2.69602e-10 -9.90805e-10)
(9.04947e-10 5.19973e-10 4.87367e-10)
(3.50938e-09 4.39172e-09 7.43755e-09)
(6.62673e-09 9.18668e-09 1.53966e-08)
(3.83368e-09 5.57136e-09 9.41903e-09)
(6.49412e-10 7.20224e-10 1.60644e-09)
(2.08008e-11 -1.23918e-10 -1.82501e-10)
(-4.13107e-10 8.78699e-11 -1.35044e-09)
(-4.93296e-10 2.00553e-10 -7.2351e-10)
(-9.97566e-10 4.44877e-10 -5.96853e-10)
(-1.98161e-09 2.46868e-11 -6.26598e-12)
(-4.52751e-09 -1.10299e-09 6.25859e-10)
(-7.39302e-09 -2.58597e-09 9.25119e-10)
(-4.49621e-09 -2.05534e-09 1.97939e-10)
(-3.34779e-10 -2.23137e-10 -3.33886e-10)
(1.87439e-10 1.78771e-10 -1.74252e-10)
(4.31541e-11 7.75964e-11 -2.65617e-11)
(-2.37684e-11 1.33111e-10 5.9334e-11)
(-1.0861e-09 3.34232e-10 -3.60552e-10)
(-4.19739e-09 1.11809e-09 -1.29808e-09)
(-7.8227e-09 2.85186e-09 -1.92563e-09)
(-7.2947e-09 3.47416e-09 -1.4085e-09)
(-2.06761e-09 -1.367e-10 -2.3773e-10)
(8.777e-10 -2.68945e-09 2.22517e-10)
(1.16113e-09 -2.42772e-09 3.83973e-10)
(2.21026e-09 -2.23329e-09 1.48582e-09)
(2.40025e-09 -1.06381e-09 2.83276e-09)
(6.12805e-10 1.09214e-09 1.03896e-09)
(-1.29837e-09 3.67664e-09 -4.09873e-09)
(-7.35176e-10 5.49278e-09 -8.87219e-09)
(2.7965e-09 3.57932e-09 -7.30278e-09)
(5.38426e-09 -1.70937e-09 -3.79566e-10)
(3.12381e-09 -3.11541e-09 2.32067e-09)
(1.95022e-10 -1.00609e-09 1.0447e-09)
(-4.78642e-09 -5.22319e-10 2.64169e-09)
(-1.45298e-08 -1.68159e-10 4.42374e-09)
(-1.00245e-08 -2.85502e-10 2.10135e-09)
(-2.3857e-09 -6.26543e-10 6.54641e-12)
(-4.74528e-10 -2.20273e-09 -1.70523e-09)
(-1.94707e-09 -1.87708e-09 -5.14982e-09)
(-3.17702e-09 1.51059e-09 -5.58134e-09)
(-4.06493e-10 1.2066e-09 -1.15782e-09)
(4.44534e-10 5.43849e-10 1.11177e-09)
(3.39559e-09 4.08008e-09 7.7519e-09)
(7.49688e-09 8.24514e-09 1.40164e-08)
(5.61225e-09 4.93995e-09 8.31902e-09)
(1.52534e-09 6.16218e-10 1.31126e-09)
(-6.86685e-11 -1.11414e-10 -4.79049e-10)
(1.73732e-10 1.54737e-10 1.59151e-10)
(-9.22052e-10 -2.23573e-10 1.183e-10)
(-5.35436e-09 -8.44238e-10 1.47417e-09)
(-1.25984e-08 -2.29151e-09 3.85618e-09)
(-9.61026e-09 -3.37198e-09 2.87893e-09)
(-1.38939e-09 -2.0437e-09 -3.07018e-11)
(9.24216e-10 -5.22347e-10 -9.77589e-10)
(9.05928e-10 5.14534e-10 -1.1827e-09)
(2.88778e-10 8.72317e-10 -5.4411e-10)
(-6.71667e-11 2.59759e-10 -2.01438e-11)
(-7.48971e-10 3.10617e-10 5.64853e-11)
(-4.00017e-09 7.55692e-10 -3.00274e-10)
(-6.68093e-09 1.47507e-09 -1.01428e-09)
(-4.17837e-09 1.19169e-09 -9.30257e-10)
(-4.94761e-10 -1.10478e-10 -3.18816e-10)
(4.96126e-10 -7.28699e-10 -7.50946e-11)
(2.3845e-09 -2.10348e-09 9.31761e-10)
(4.44816e-09 -2.71291e-09 4.57059e-09)
(3.21577e-09 -1.30178e-09 5.43603e-09)
(7.62558e-10 3.66102e-10 2.41406e-09)
(-6.58994e-10 1.56742e-09 -4.47444e-10)
(-3.50403e-10 1.9573e-09 -1.94228e-09)
(8.45657e-10 1.26117e-09 -1.87685e-09)
(1.17852e-09 -7.16375e-11 -1.11506e-09)