/*--------------------------------*- C++ -*----------------------------------*\
| =========                 |                                                 |
| \\      /  F ield         | OpenFOAM: The Open Source CFD Toolbox           |
|  \\    /   O peration     | Version:  5.0                                   |
|   \\  /    A nd           | Web:      www.OpenFOAM.org                      |
|    \\/     M anipulation  |                                                 |
\*---------------------------------------------------------------------------*/
FoamFile
{
    version     2.0;
    format      ascii;
    class       volScalarField;
    location    "50.4676134421789371";
    object      SGSDissMean;
}
// * * * * * * * * * * * * * * * * * * * * * * * * * * * * * * * * * * * * * //

dimensions      [0 2 -3 0 0 0 0];

internalField   nonuniform List<scalar> 
60000
(
1.85294e-08
-1.93305e-09
-1.27506e-08
-1.09434e-08
-5.12855e-09
-3.47315e-10
2.72801e-09
5.17096e-09
1.07597e-08
2.21588e-08
3.28339e-08
2.89781e-08
1.57329e-08
9.36431e-09
9.91407e-09
1.23161e-08
1.75906e-08
3.12603e-08
5.86827e-08
1.00965e-07
1.54286e-07
2.30513e-07
3.41911e-07
5.14116e-07
8.02951e-07
1.20258e-06
1.51912e-06
1.41029e-06
8.66771e-07
3.78702e-07
2.14709e-07
2.24547e-07
2.69468e-07
2.64567e-07
1.54168e-07
3.04849e-08
1.17438e-09
1.49239e-08
2.85192e-08
3.13396e-08
1.30612e-06
9.85341e-07
5.5285e-07
1.94724e-07
-4.26033e-08
-8.28512e-08
-1.06101e-08
4.48155e-08
1.36805e-07
4.56222e-07
9.6205e-07
1.16405e-06
7.11332e-07
1.89714e-07
1.52053e-07
4.5106e-07
8.24712e-07
1.02993e-06
8.06304e-07
2.04784e-07
-4.47526e-07
-3.96379e-07
7.70483e-07
2.56333e-06
4.35429e-06
6.06637e-06
7.82858e-06
9.40452e-06
8.83892e-06
4.97619e-06
1.30676e-06
5.00618e-07
1.42622e-06
3.03898e-06
3.92149e-06
2.3396e-06
1.27165e-07
-1.49576e-07
4.8395e-07
1.10502e-06
8.72712e-07
1.51603e-06
1.62644e-06
1.1995e-06
4.20789e-09
-1.00978e-06
-1.07919e-06
-7.96587e-07
-7.76158e-07
-6.96356e-07
-3.14941e-07
-5.01137e-08
-6.34212e-07
-1.71139e-06
-1.70096e-06
-7.4738e-07
-2.22815e-07
-1.39008e-06
-3.98904e-06
-5.89037e-06
-6.1407e-06
-5.53797e-06
-5.10374e-06
-6.40637e-06
-1.01725e-05
-1.56336e-05
-2.06731e-05
-2.26513e-05
-2.02588e-05
-1.62366e-05
-1.49574e-05
-1.44344e-05
-1.23939e-05
-9.64692e-06
-5.88668e-06
-2.32082e-06
-2.85498e-06
-4.1552e-06
-2.33531e-06
-3.49382e-07
-8.45905e-07
-7.92543e-07
-1.159e-06
-1.30086e-06
-1.23539e-06
-1.70022e-06
-1.94932e-06
-1.4714e-06
-1.0042e-06
-7.34148e-07
-5.20917e-07
-4.02839e-07
-7.38839e-07
-1.49483e-06
-1.6436e-06
-9.83125e-07
-4.805e-07
-1.12817e-06
-3.03047e-06
-4.31407e-06
-3.40236e-06
-2.06932e-06
-1.45562e-06
-1.65654e-06
-2.56796e-06
-3.95147e-06
-5.01039e-06
-5.52316e-06
-5.8904e-06
-6.71211e-06
-8.10322e-06
-8.92788e-06
-8.16675e-06
-6.62863e-06
-5.0822e-06
-3.92687e-06
-3.74171e-06
-4.22972e-06
-3.21405e-06
-1.55678e-06
-2.23186e-07
-2.57849e-08
-9.82367e-08
-4.03179e-07
-4.97411e-07
-7.15259e-07
-1.24336e-06
-1.47973e-06
-1.12972e-06
-6.45572e-07
-3.03396e-07
-9.23776e-08
8.91829e-08
2.83454e-09
-2.6123e-07
-4.89664e-08
4.60483e-07
5.31781e-07
-5.39821e-07
-2.42593e-06
-2.30213e-06
-8.99566e-07
-2.02491e-07
-1.44156e-07
-2.86178e-07
-4.13071e-07
-3.3787e-07
-1.89545e-07
5.11932e-08
5.00169e-07
6.08415e-07
-4.92654e-07
-2.06803e-06
-2.71503e-06
-2.24677e-06
-1.32884e-06
-6.15965e-07
-9.67839e-07
-1.68241e-06
-1.05565e-06
-2.2061e-07
1.62087e-07
2.36135e-07
3.43362e-07
5.14004e-07
6.47071e-07
2.57222e-07
-5.89205e-07
-1.22243e-06
-1.08954e-06
-4.84985e-07
-1.39254e-07
-2.74859e-09
1.40874e-07
2.49609e-07
4.50337e-07
8.41914e-07
1.02157e-06
8.44969e-07
-7.11258e-07
-2.09286e-06
-9.79609e-07
-1.29888e-07
-1.1652e-07
-1.43569e-07
-3.04322e-08
1.66098e-08
2.24471e-08
3.74744e-08
1.64469e-07
6.90959e-07
1.44054e-06
1.16073e-06
-2.46329e-07
-1.20179e-06
-9.22858e-07
-2.0429e-07
3.28739e-07
-8.65408e-08
-6.32532e-07
-3.8071e-07
-1.40613e-07
-3.55344e-08
3.15099e-08
2.78871e-07
7.57736e-07
1.10022e-06
8.30678e-07
-2.36866e-07
-1.32635e-06
-1.10676e-06
-3.01962e-07
-3.21547e-08
4.6982e-08
2.35761e-07
5.69531e-07
6.42205e-07
5.21029e-07
7.60097e-07
6.05806e-07
-1.19483e-06
-1.26219e-06
-2.70075e-07
-8.81579e-08
-1.92557e-08
2.4008e-08
4.3506e-09
-9.81024e-09
-5.28313e-09
-2.19481e-09
3.09443e-08
2.62898e-07
8.35383e-07
1.00071e-06
1.0597e-07
-6.88524e-07
-5.16005e-07
-4.53989e-08
2.30775e-07
-1.0364e-07
-1.53865e-07
-2.96818e-07
-1.98911e-07
-1.32816e-07
-4.79073e-08
1.51208e-07
5.58389e-07
1.03743e-06
1.07321e-06
-9.64114e-08
-1.3884e-06
-8.05073e-07
-8.52628e-08
1.04439e-07
3.54091e-07
5.01325e-07
1.44447e-07
2.64592e-08
3.07195e-07
7.82123e-07
1.93834e-07
-1.08706e-06
-4.23301e-07
-1.78537e-08
6.13929e-08
1.97831e-08
-3.30762e-08
-2.7396e-08
-1.5389e-08
-7.21784e-09
-7.33424e-09
-2.77857e-09
8.23715e-08
3.98546e-07
6.63643e-07
2.03453e-07
-3.38939e-07
-2.73253e-07
-8.18398e-09
9.17263e-08
1.2401e-08
-1.47729e-07
-1.99482e-07
-1.49122e-07
-9.81802e-08
-3.52296e-08
6.59369e-08
2.66016e-07
6.75478e-07
9.6533e-07
-1.30328e-07
-1.11709e-06
-3.62544e-07
1.20407e-07
3.4888e-07
1.02814e-07
-1.94995e-07
-8.33831e-08
7.48932e-08
3.05958e-07
6.09396e-07
-3.09791e-07
-5.12489e-07
-2.20133e-08
6.65606e-08
3.65697e-09
-1.63145e-08
-9.00487e-09
-1.29376e-08
-1.70184e-08
-1.70956e-08
-1.79122e-08
-1.3318e-08
1.8613e-08
1.48269e-07
3.02659e-07
1.2737e-07
-1.27829e-07
-1.05856e-07
1.74376e-08
5.27627e-08
3.1372e-08
-5.77778e-08
-1.23814e-07
-1.33914e-07
-9.84938e-08
-4.00343e-08
7.91885e-09
8.24931e-08
3.87028e-07
7.23059e-07
-2.61899e-07
-6.79736e-07
-8.76654e-08
7.43259e-08
-6.55167e-08
-8.8188e-08
-1.84258e-08
1.82009e-08
5.81778e-08
2.4953e-07
2.07976e-07
-3.33147e-07
-7.44688e-08
1.40566e-08
1.22803e-08
2.30953e-08
1.73567e-08
-4.28134e-09
-1.91474e-08
-2.69898e-08
-3.12296e-08
-2.48562e-08
-1.0294e-08
2.89424e-09
3.15989e-08
6.45791e-08
3.38195e-08
-9.88822e-09
1.05107e-08
4.36106e-08
9.31053e-08
5.41522e-08
-7.79325e-08
-1.44816e-07
-1.20077e-07
-6.17364e-08
-2.01124e-08
-2.95588e-09
2.46414e-08
2.45324e-07
3.94235e-07
-3.81317e-07
-2.77683e-07
-2.17572e-08
-4.76211e-09
-1.87215e-08
-1.15597e-08
-9.17697e-10
9.35429e-09
5.01216e-08
1.52663e-07
-4.91352e-08
-9.33908e-08
-1.25998e-08
1.98701e-08
4.10965e-08
2.50133e-08
5.74793e-10
-1.12674e-08
-1.75882e-08
-3.18773e-08
-3.8776e-08
-2.12641e-08
-3.6266e-09
1.77562e-09
4.79981e-09
5.91491e-09
6.48167e-09
1.30051e-08
1.74915e-08
6.66623e-08
7.08113e-08
-5.81283e-08
-1.19397e-07
-7.58631e-08
-3.64364e-08
-1.39908e-08
-2.16165e-09
-7.65889e-11
1.99732e-08
1.87728e-07
3.58942e-08
-2.44354e-07
-3.40698e-08
2.15189e-08
9.25535e-10
-2.24945e-08
-2.30662e-08
-9.13257e-09
1.20597e-08
5.80705e-08
4.22555e-08
-3.52675e-08
-1.57987e-08
1.49812e-08
2.44608e-08
1.64178e-08
2.7872e-09
-1.08328e-09
4.5258e-09
-5.97774e-09
-4.10009e-08
-4.14531e-08
-1.11315e-08
4.52471e-10
2.3597e-09
7.95955e-10
2.43498e-10
2.36049e-09
6.58992e-09
2.33227e-08
1.70917e-08
-3.25592e-08
-3.88511e-08
-1.94302e-08
-1.96576e-08
-1.52065e-08
-3.369e-09
-2.74596e-10
3.38768e-09
5.76364e-08
8.41925e-08
-1.2143e-07
-4.44954e-08
3.57218e-08
4.0292e-08
-2.58523e-08
-5.66744e-08
-3.23878e-08
-2.38544e-09
3.44254e-08
4.23367e-08
-5.33477e-09
-2.52071e-08
-3.27618e-09
1.21306e-08
1.02311e-08
5.07677e-10
-3.46703e-10
1.41126e-08
2.9788e-08
-2.44401e-09
-5.63553e-08
-3.18085e-08
-1.71558e-09
4.78722e-09
1.87576e-09
-3.43261e-10
3.13278e-10
5.90466e-09
1.02312e-09
-1.97595e-08
-1.40994e-08
3.93426e-09
1.08264e-08
-4.04429e-09
-1.38654e-08
-6.4599e-09
-1.37587e-09
1.77149e-09
2.5976e-08
5.07643e-08
-5.47724e-08
-3.87757e-08
3.2822e-08
4.37143e-08
-2.80036e-08
-4.27282e-08
-1.66127e-08
-3.98123e-09
7.58294e-09
5.03493e-09
-2.36405e-08
-7.67405e-09
8.55703e-09
8.6677e-09
1.12697e-09
-6.7855e-09
-6.18521e-09
3.73833e-09
2.71323e-08
4.40786e-08
-2.06323e-08
-5.87319e-08
-1.46658e-08
2.93375e-09
4.49791e-09
1.56327e-09
3.02773e-09
7.53005e-09
-5.45337e-09
-2.03381e-08
-8.03007e-09
5.76742e-10
3.54929e-09
2.84195e-09
1.64663e-10
-2.20381e-09
-2.81419e-09
-7.91283e-10
1.18587e-08
2.9092e-08
-1.95493e-08
-2.9341e-08
7.8506e-09
7.07674e-09
-1.37237e-08
-7.69572e-09
5.11626e-09
1.89278e-08
1.42804e-08
-1.27729e-08
-1.99949e-08
-4.96973e-09
6.26655e-09
6.72309e-09
-8.33187e-09
-1.53749e-08
-9.86966e-09
-3.52012e-09
6.54667e-09
3.34563e-08
3.0681e-08
-4.17436e-08
-3.8209e-08
-3.66919e-09
3.71197e-09
3.95893e-09
6.39579e-09
8.44289e-09
-3.51846e-09
-1.40386e-08
-7.92341e-09
-1.96218e-09
-6.45906e-10
2.56229e-12
1.71412e-09
2.60622e-09
-3.75266e-10
-1.52025e-09
7.35683e-09
2.28443e-08
-4.99114e-09
-2.53117e-08
-4.19669e-09
3.53497e-09
6.17891e-10
5.0591e-10
4.98049e-09
1.36291e-08
2.76307e-08
3.26568e-08
2.36821e-08
4.29163e-08
5.61413e-08
-1.07618e-08
-8.02046e-08
-6.77507e-08
-2.85695e-08
-9.91431e-09
-3.4571e-09
8.25998e-09
3.00374e-08
6.83778e-09
-3.71048e-08
-1.61263e-08
5.61165e-10
5.26994e-09
8.07546e-09
7.45556e-09
1.4943e-09
-5.80723e-09
-5.86946e-09
-3.89375e-09
-3.82772e-09
-2.32862e-09
-1.2917e-11
2.29865e-09
3.62469e-09
2.45326e-09
6.61241e-09
1.60327e-08
1.31342e-09
-1.73998e-08
-5.88531e-09
4.271e-10
-6.45051e-10
3.04016e-09
9.24436e-09
1.15899e-08
1.25639e-08
1.82164e-08
3.66019e-08
6.05421e-08
4.24224e-08
-1.84366e-08
-6.07949e-08
-6.5493e-08
-3.86597e-08
-1.30296e-08
-6.56636e-09
-5.5167e-09
6.46919e-09
2.28159e-08
-3.92245e-10
-2.41792e-08
-9.00707e-09
1.38922e-09
6.57728e-09
2.24092e-09
2.56393e-09
1.96392e-09
5.75436e-09
1.07267e-09
-1.35325e-08
-1.01044e-08
-2.20749e-09
4.40815e-10
2.57552e-09
4.1377e-09
6.0113e-09
6.90957e-09
-2.08639e-10
-1.11761e-08
-8.33577e-09
1.44147e-09
6.07786e-09
3.70451e-09
6.36689e-09
9.76897e-09
7.5322e-09
-4.46451e-09
-2.53908e-08
-2.70576e-08
-1.17059e-09
2.7404e-08
5.91635e-09
-2.60946e-08
-1.30118e-10
2.5358e-08
1.46005e-08
-3.20707e-08
-2.67013e-08
2.58104e-09
2.29452e-08
8.92919e-09
-1.80968e-08
-1.45455e-08
-2.73554e-09
-1.55439e-08
1.14696e-09
1.66694e-08
1.05265e-08
-2.12134e-08
-1.90608e-08
-3.07872e-09
-4.50575e-10
-3.57949e-09
-7.66662e-10
3.79916e-09
7.01888e-09
5.18106e-10
-7.73208e-09
-6.31102e-09
3.07656e-09
1.65502e-08
5.56472e-09
-1.42424e-08
-8.24668e-09
-1.64766e-09
-3.6695e-09
-2.56238e-09
7.26963e-09
3.65572e-08
4.25511e-08
-3.78625e-08
-5.4344e-08
-7.91206e-09
7.41855e-09
1.00773e-08
3.08272e-08
2.96821e-08
-4.03199e-08
-3.71497e-08
1.25881e-09
2.47641e-08
2.29192e-08
-9.78495e-09
-2.81998e-08
-1.90144e-08
-8.36485e-09
2.63885e-09
5.93549e-09
-3.81753e-09
-5.34341e-09
-1.75742e-09
-8.52187e-10
-3.73548e-09
-1.80648e-09
2.84122e-09
6.96377e-09
8.57549e-10
-1.7448e-09
4.32897e-09
1.37006e-08
1.22675e-08
-7.67007e-09
-1.93504e-08
-8.97171e-09
1.2499e-09
-2.63527e-09
-7.17529e-09
-1.00476e-09
2.44341e-09
-2.54474e-09
-1.1465e-09
5.2561e-09
4.87381e-09
-1.78421e-10
-3.75541e-09
1.99793e-10
2.94528e-08
5.28945e-08
-1.91605e-08
-3.98307e-08
-9.86756e-09
6.24115e-09
5.58327e-09
-8.43742e-09
1.36397e-10
-4.39487e-10
-2.86526e-10
6.66444e-10
-6.67863e-10
-2.10104e-09
-5.81863e-10
1.64714e-09
8.48657e-10
-1.15478e-09
1.60604e-10
2.60504e-09
6.52351e-09
1.00328e-08
3.33024e-09
-5.05308e-09
-4.84887e-09
-2.76683e-09
-4.62121e-09
-5.07087e-09
-9.81821e-10
1.8176e-09
4.26586e-10
-1.32971e-09
-2.19814e-09
-2.0453e-09
-6.23126e-10
4.16776e-10
1.69024e-09
2.4724e-09
-1.343e-09
-5.72283e-09
8.20042e-10
2.74686e-08
3.731e-08
-1.28712e-08
-3.39442e-08
-2.47036e-08
-1.21415e-08
-3.09194e-09
2.80705e-09
3.39383e-09
-4.5728e-10
-4.90104e-09
-5.90113e-09
-2.90041e-09
7.59669e-11
3.15924e-09
5.01638e-09
1.58074e-09
6.87491e-11
2.48583e-09
1.54554e-09
-2.04271e-09
-5.97503e-09
-7.43787e-09
-1.95984e-09
6.86659e-09
1.43009e-08
7.19188e-09
-3.08502e-09
-4.20875e-09
-3.25922e-09
-3.95962e-09
-3.31742e-09
-1.85961e-10
4.18747e-09
8.16259e-09
7.66365e-09
1.86995e-09
-7.17996e-09
-1.41096e-08
-6.58942e-09
5.89851e-09
1.583e-08
-8.22731e-12
-1.33025e-08
-1.27642e-08
-8.06671e-09
-2.08627e-09
9.36341e-09
1.37814e-08
6.63719e-09
-8.86654e-09
-1.44013e-08
-7.8935e-09
-7.84387e-10
1.49389e-09
-2.00151e-09
-5.76373e-09
-4.64532e-09
-1.86611e-09
-1.54846e-09
-1.04777e-09
9.22892e-10
2.12676e-09
4.59758e-10
2.51743e-09
6.7703e-09
1.89917e-09
-9.59644e-09
-1.08731e-08
-4.15694e-09
6.40402e-10
2.66842e-09
2.36259e-09
1.54183e-09
1.66497e-09
1.57761e-09
-8.14375e-10
-3.72933e-09
-3.30225e-09
-2.19949e-09
-7.10234e-10
1.85345e-09
-2.48126e-12
-3.2132e-09
-1.81345e-09
8.83616e-10
4.01566e-09
2.01323e-09
4.26669e-09
4.80259e-09
1.80532e-09
-2.62739e-09
-1.68226e-09
4.70302e-09
8.97161e-09
1.51938e-09
-1.19843e-08
-1.41873e-08
-6.03004e-09
-7.72496e-10
4.02267e-10
7.42953e-10
5.51987e-10
-8.23265e-10
-9.36901e-10
4.61334e-10
1.42984e-09
4.38543e-10
4.29336e-10
1.92335e-09
1.69289e-09
-7.67799e-10
-1.92337e-09
-1.67496e-09
-1.11317e-09
-3.95365e-10
-3.54797e-10
-7.26905e-10
1.02775e-09
7.4108e-09
6.62264e-09
-4.56258e-09
-5.98067e-09
-2.51505e-09
-1.19338e-09
-9.48812e-10
6.08134e-11
-1.02592e-09
1.0227e-09
4.92076e-10
-1.53779e-09
-6.8646e-10
2.36497e-09
4.35834e-09
2.43369e-09
1.06431e-09
2.23717e-09
3.42218e-09
5.7366e-09
1.03306e-08
1.14268e-08
2.83503e-09
-9.27707e-09
-1.3812e-08
-1.02128e-08
-4.7961e-09
-1.0226e-09
9.79403e-10
1.39686e-09
-2.22046e-10
-1.45192e-09
-7.28632e-10
-4.19925e-10
-1.2336e-09
-1.04256e-09
-1.62273e-10
2.33577e-10
2.55748e-10
3.36849e-10
2.03014e-09
4.78894e-09
3.45615e-09
-6.77416e-11
-1.52406e-09
-2.75026e-09
-4.38623e-09
-3.79622e-09
1.86357e-09
1.84644e-09
2.0804e-09
5.03744e-09
1.2167e-08
2.1636e-08
2.59883e-08
2.20895e-08
1.82576e-08
2.21464e-08
3.25871e-08
4.97092e-08
7.70434e-08
1.19382e-07
1.81845e-07
2.67897e-07
3.70103e-07
4.56941e-07
4.79927e-07
3.98266e-07
2.7811e-07
2.36631e-07
2.75308e-07
3.55202e-07
4.86186e-07
6.55129e-07
7.55156e-07
7.09285e-07
6.13871e-07
6.09062e-07
7.25843e-07
8.98867e-07
9.80607e-07
7.89087e-07
3.00185e-07
-7.91147e-08
-6.48318e-08
-1.12755e-08
-9.2265e-10
1.08335e-09
4.97519e-08
4.27164e-08
5.73506e-08
1.1294e-07
2.12319e-07
4.02553e-07
5.97512e-07
5.53565e-07
2.60454e-07
9.56567e-08
1.90614e-07
3.47361e-07
4.62419e-07
6.61803e-07
1.19417e-06
2.16867e-06
3.42394e-06
4.66497e-06
5.57079e-06
4.68721e-06
8.79182e-07
-2.00214e-06
-1.47562e-06
8.16625e-07
3.73849e-06
6.36862e-06
7.66179e-06
7.02094e-06
4.97675e-06
3.16082e-06
2.76336e-06
3.69288e-06
5.38118e-06
7.24829e-06
8.1244e-06
4.18753e-06
-1.05367e-06
-9.12112e-07
-2.03161e-07
1.95377e-09
1.09062e-07
9.92252e-08
-1.01643e-07
-3.43589e-07
-6.86352e-07
-9.84017e-07
-1.06857e-06
-1.1409e-06
-1.35551e-06
-1.61155e-06
-1.51492e-06
-1.43573e-06
-1.79689e-06
-2.3391e-06
-2.85383e-06
-3.82944e-06
-5.94421e-06
-8.89379e-06
-1.12624e-05
-1.21577e-05
-1.37015e-05
-1.45918e-05
-1.0905e-05
-7.11794e-06
-6.39929e-06
-8.79166e-06
-1.26043e-05
-1.55597e-05
-1.73095e-05
-1.8594e-05
-1.93037e-05
-1.93267e-05
-1.89392e-05
-1.72764e-05
-1.16895e-05
-1.4459e-06
3.39945e-07
-4.61076e-06
-2.00349e-06
-3.57348e-07
-1.99444e-07
6.48086e-09
-1.98223e-07
-4.34959e-07
-5.94444e-07
-7.61309e-07
-8.90343e-07
-1.01236e-06
-1.05393e-06
-1.03861e-06
-9.47991e-07
-7.4487e-07
-6.99645e-07
-7.70113e-07
-8.13191e-07
-1.08138e-06
-1.99029e-06
-3.2612e-06
-4.31178e-06
-5.13832e-06
-6.62053e-06
-7.67678e-06
-5.13378e-06
-2.52758e-06
-1.73798e-06
-2.28869e-06
-3.71968e-06
-5.15458e-06
-6.43706e-06
-7.51189e-06
-7.92105e-06
-7.7051e-06
-7.46718e-06
-7.39406e-06
-7.32981e-06
-6.79065e-06
-4.92308e-06
-5.99484e-06
-4.66682e-06
-1.33835e-06
-5.12265e-07
1.68041e-08
6.69892e-08
-4.61857e-08
-5.88569e-08
-1.00311e-07
-2.6844e-07
-4.11297e-07
-4.271e-07
-3.19536e-07
-2.41123e-07
-1.55984e-07
-3.91953e-08
6.6004e-08
2.02162e-07
1.95602e-07
-1.65391e-07
-4.13922e-07
-3.39853e-07
-2.58564e-07
-7.53311e-07
-2.3321e-06
-2.05416e-06
-6.98367e-07
-2.16684e-07
-1.00579e-07
-1.20407e-07
-7.79274e-08
-1.20923e-08
-1.16765e-07
-4.03342e-07
-6.42512e-07
-8.43405e-07
-1.10536e-06
-1.16197e-06
-7.08746e-07
-6.10911e-07
-2.88721e-06
-5.02545e-06
-2.46162e-06
-1.19638e-06
-1.56205e-07
1.26229e-07
1.40069e-07
1.66282e-07
2.4029e-07
1.7138e-07
-1.32287e-07
-3.20352e-07
-2.28264e-07
7.66847e-09
1.49199e-07
2.38389e-07
3.41804e-07
3.81342e-07
1.48734e-07
-2.07597e-07
-1.59939e-07
1.04842e-07
3.1692e-07
2.90256e-07
-5.07608e-07
-9.4269e-07
-2.96733e-07
-1.0771e-07
-7.54109e-08
-5.20892e-09
2.42306e-08
4.53768e-08
1.13034e-07
2.39519e-07
3.83929e-07
4.66965e-07
3.36498e-07
6.86366e-08
2.91264e-07
1.26916e-06
1.21318e-06
-2.14968e-06
-3.27823e-06
-2.13422e-06
-6.05923e-07
-2.11225e-08
9.37258e-08
1.25574e-07
2.34338e-07
3.68087e-07
2.50899e-07
-2.69439e-07
-3.92714e-07
-1.45367e-07
1.89833e-07
4.36683e-07
4.99783e-07
2.17248e-07
-3.15907e-07
-3.93161e-07
-1.43745e-07
3.99243e-08
1.59385e-07
1.8787e-07
-6.19552e-08
-4.12682e-07
-1.71979e-07
-7.04031e-08
-2.17458e-08
2.75443e-08
3.34537e-08
-1.82004e-08
-6.04556e-08
-5.92728e-08
-1.7782e-08
7.56715e-08
2.31514e-07
2.63395e-07
1.43577e-07
4.87586e-07
1.52545e-06
9.80882e-07
-1.93934e-06
-1.79622e-06
-1.32001e-06
-2.67917e-07
3.82972e-11
4.07976e-08
1.13512e-07
2.63458e-07
4.4105e-07
1.62857e-07
-4.65602e-07
-3.62e-07
-3.56043e-08
3.4233e-07
4.76592e-07
-3.28367e-08
-4.95378e-07
-2.87642e-07
-4.62516e-08
3.05996e-08
6.76788e-08
9.04667e-08
3.77797e-08
-1.77013e-07
-1.27235e-07
-2.39549e-08
3.02298e-08
6.65884e-08
4.46594e-08
2.27411e-08
2.54116e-09
-4.49198e-08
-1.05327e-07
-1.09854e-07
-2.80637e-08
8.98257e-08
1.60709e-07
1.69755e-07
5.59124e-07
1.31539e-06
4.87395e-07
-1.06197e-07
-1.57699e-06
-6.33576e-07
-8.30617e-08
6.47193e-09
5.8094e-08
1.22833e-07
2.46989e-07
4.29924e-07
-5.96425e-08
-5.48364e-07
-2.53238e-07
2.68703e-08
1.71246e-07
-1.01347e-07
-2.51403e-07
-8.15393e-08
6.77288e-09
3.26543e-08
3.54887e-08
4.12472e-08
4.73854e-08
-7.80091e-08
-1.1078e-07
-3.24528e-09
5.89677e-08
4.99401e-08
1.78554e-08
2.3296e-08
3.37119e-08
2.03587e-08
-2.89637e-08
-8.08463e-08
-7.58777e-08
-1.59706e-08
4.74996e-08
9.79113e-08
1.6036e-07
5.36123e-07
1.09228e-06
7.3275e-07
-6.88601e-07
-8.77844e-07
-1.84489e-07
3.27317e-08
5.43216e-08
1.29345e-09
1.0068e-08
1.83153e-07
3.40638e-07
-2.67344e-07
-4.4222e-07
-1.08969e-07
-6.81824e-09
-4.75275e-08
-5.34192e-08
-1.10857e-08
7.64406e-09
1.94078e-08
2.1493e-08
2.96652e-08
3.66584e-08
-2.85722e-08
-8.69097e-08
3.50092e-09
4.31433e-08
5.28341e-09
6.05992e-11
1.23767e-08
2.32354e-08
2.51489e-08
5.38649e-09
-3.30518e-08
-5.02319e-08
-2.74486e-08
-3.47422e-10
2.35535e-08
4.39597e-08
1.219e-07
4.97413e-07
4.97328e-07
3.21061e-07
-5.89209e-07
-2.7641e-07
-1.52428e-09
-6.33558e-08
-1.26508e-07
-9.02637e-08
2.00769e-09
1.50078e-07
1.18381e-07
-3.33557e-07
-1.70352e-07
-6.02573e-09
-2.17333e-08
-3.61553e-08
-1.27093e-08
5.56091e-10
2.59802e-09
9.81766e-09
2.40525e-08
2.93238e-08
-5.11427e-09
-5.00077e-08
-5.59268e-09
3.92188e-10
2.37329e-09
8.48647e-09
6.71349e-09
4.60539e-09
7.82772e-09
8.65641e-09
-1.0478e-08
-3.51922e-08
-2.62452e-08
-4.88036e-09
3.32732e-09
8.90728e-09
1.74337e-08
1.02148e-07
1.87149e-07
6.06101e-07
4.63533e-08
-3.11098e-07
-2.27831e-07
-2.44147e-07
-1.78508e-07
-8.27405e-08
-1.47063e-08
3.76055e-08
5.58915e-08
-9.71163e-08
-1.40003e-07
-1.88291e-09
8.65782e-09
-2.19238e-08
-1.33894e-08
-4.92331e-09
-5.70131e-09
-1.41553e-09
1.06658e-08
2.44751e-08
1.21319e-08
-2.65627e-08
-2.10483e-08
2.91675e-09
1.29064e-08
7.15564e-09
5.85115e-10
-3.64852e-09
-5.89586e-09
-8.31164e-10
-1.55135e-09
-2.88509e-08
-3.24933e-08
-7.74511e-09
2.10384e-09
3.54871e-09
3.00477e-09
1.70502e-08
6.02558e-08
3.55901e-07
4.49555e-07
-1.15703e-07
-4.3029e-07
-3.44417e-07
-1.56593e-07
-5.38822e-08
-1.09626e-08
2.08468e-08
2.38566e-08
-4.4029e-08
-7.71852e-08
-5.02101e-09
2.26748e-08
5.55407e-09
6.24629e-09
9.96823e-09
-2.23998e-08
-3.91615e-08
-9.28287e-09
1.62011e-08
1.85715e-08
-1.3186e-08
-1.65549e-08
-5.92469e-09
9.43252e-10
7.37933e-09
1.0743e-08
1.90544e-09
-1.59792e-08
-1.72063e-08
3.89174e-10
-1.27782e-08
-4.32356e-08
-1.88838e-08
1.47641e-09
7.10586e-09
-4.05528e-10
4.12925e-09
2.19863e-08
9.14518e-08
1.63028e-07
-4.1822e-08
-2.41586e-07
-1.59985e-07
-4.65899e-08
-5.43893e-09
3.81527e-09
1.99027e-08
3.41516e-08
-1.589e-08
-5.93132e-08
-1.1004e-08
2.50887e-08
4.81018e-08
6.47192e-08
4.33757e-08
-5.83156e-08
-1.02634e-07
-3.5232e-08
3.31972e-09
6.683e-09
-1.56048e-08
-1.31449e-08
1.14115e-10
7.70328e-09
1.98263e-08
1.92289e-08
-4.25704e-09
-2.31551e-08
-2.10693e-08
-1.21555e-09
9.90951e-09
-3.13596e-08
-3.86606e-08
-5.34753e-09
4.33776e-09
6.13587e-09
2.41084e-09
7.91915e-09
7.74363e-09
-9.06274e-09
-2.39149e-08
-1.91621e-08
-9.09288e-09
-1.25364e-09
3.86861e-09
5.03506e-09
8.69146e-09
2.35816e-08
1.04202e-08
-3.40196e-08
-1.57719e-08
2.36315e-08
8.12548e-08
9.53141e-08
2.50863e-08
-7.28372e-08
-1.02419e-07
-3.87032e-08
4.19319e-09
-3.08862e-10
-1.27382e-08
-5.99348e-09
1.00786e-08
4.90405e-08
4.26315e-08
-2.16876e-08
-3.9675e-08
-2.12229e-08
-7.91141e-09
1.5899e-09
1.45918e-08
1.29204e-09
-3.66432e-08
-1.98548e-08
-6.49708e-10
4.56468e-09
7.39545e-09
4.31447e-09
-6.57935e-09
-9.35478e-09
-3.69303e-09
-7.88999e-10
-5.4946e-10
-3.28213e-11
1.71376e-09
2.69647e-09
4.3065e-09
1.59128e-08
1.07471e-08
-1.97454e-08
-1.17549e-08
1.99325e-08
6.02309e-08
4.84909e-08
-3.56044e-09
-4.08636e-08
-4.90851e-08
-2.24766e-08
1.35603e-08
2.68734e-08
9.75281e-09
4.01872e-08
1.16347e-07
8.34191e-08
-6.55284e-08
-9.51164e-08
-3.11131e-08
1.49367e-09
-3.25335e-09
-8.41002e-09
3.06933e-09
1.633e-08
-4.76686e-09
-2.60089e-08
-9.59537e-09
1.66814e-09
8.18163e-09
3.50597e-09
-5.25136e-09
-6.31078e-09
-2.33615e-09
-6.2328e-10
-7.5002e-10
-5.7022e-10
7.12445e-10
2.11679e-09
4.16292e-09
1.79819e-08
1.68222e-08
-2.22854e-08
-1.3807e-08
1.41108e-08
3.78866e-08
1.80406e-08
-1.13488e-08
-1.99698e-08
-1.88426e-08
-1.13374e-08
2.73304e-09
2.95712e-08
6.72695e-08
9.79659e-08
3.93846e-08
-8.98514e-08
-8.37045e-08
-1.94211e-08
-3.42219e-09
-4.64464e-09
6.31263e-10
-4.6553e-09
-5.16702e-09
8.5573e-09
2.18812e-08
-2.01788e-09
-2.05787e-08
-8.62986e-09
2.88273e-09
-7.80526e-09
-5.08299e-09
-5.5373e-09
-2.61307e-09
-2.44818e-10
-6.9228e-10
-8.8212e-10
-2.26622e-11
1.25317e-09
4.82612e-09
1.9292e-08
3.2005e-08
-1.12507e-08
-2.22767e-08
5.79773e-09
1.25296e-08
-4.50468e-09
-8.87057e-09
-5.50785e-09
-6.53294e-09
-4.97475e-09
3.76961e-09
2.35791e-08
3.39828e-08
-1.40481e-08
-5.94767e-08
-1.77558e-08
1.12308e-08
1.19809e-08
-1.23127e-08
-4.83656e-09
2.22816e-10
-3.75756e-09
-4.4834e-09
-3.51475e-10
1.52173e-08
3.07188e-08
5.97428e-09
-2.10831e-08
-1.84828e-08
-1.74155e-08
-1.13536e-08
-3.57891e-09
1.55734e-09
5.80574e-10
-2.86671e-09
-7.92588e-10
5.67084e-11
-1.98623e-09
2.10032e-09
1.46428e-08
2.44606e-08
1.01077e-08
-1.02933e-08
-1.94068e-08
-1.70227e-08
-6.18738e-09
-4.17093e-10
-5.78763e-10
-9.29407e-10
1.37501e-09
5.8787e-09
7.65629e-09
-5.65024e-09
-1.25453e-08
5.79552e-09
2.47217e-08
-5.43642e-09
-2.57297e-08
-5.86079e-09
7.97786e-09
2.98888e-08
-9.7009e-10
-2.92031e-08
-1.14251e-08
-2.21451e-10
1.09317e-08
1.65549e-08
1.82579e-09
-1.485e-08
-5.72387e-09
-8.35891e-09
-3.17111e-09
2.12421e-10
2.73962e-10
-3.08543e-10
1.2864e-09
4.34767e-09
5.13732e-09
4.28045e-09
9.41889e-09
7.96417e-09
-6.84719e-09
-1.5941e-08
-1.35494e-08
-4.79343e-09
-5.04612e-10
8.31187e-11
-2.05585e-10
1.36572e-10
6.39169e-10
8.75677e-10
1.20295e-09
3.32069e-09
9.57077e-09
6.76008e-09
-1.13725e-08
-1.11602e-08
-1.48058e-09
-1.34509e-10
-2.62314e-09
1.81574e-08
6.93233e-08
3.67064e-09
-5.66243e-08
-2.50278e-08
-3.4081e-09
3.28471e-09
3.7709e-09
4.0318e-10
-7.37357e-10
-8.28045e-10
-9.1385e-10
-9.18608e-10
-1.68076e-09
-1.16643e-09
6.58695e-11
2.43398e-09
8.73503e-09
1.44482e-08
9.45426e-09
-2.73167e-09
-1.4252e-08
-1.44556e-08
-6.03647e-09
-1.02282e-09
7.94509e-10
1.5551e-09
5.71239e-10
-3.65704e-11
1.60775e-09
3.35687e-09
3.67512e-09
1.79411e-09
-2.83753e-09
-5.1936e-09
-1.44863e-09
4.6008e-09
8.46444e-09
-2.17279e-10
-1.64883e-08
-8.582e-09
2.87965e-08
8.85619e-08
1.0801e-08
-5.88876e-08
-3.91993e-08
-1.75654e-08
-8.95725e-09
-3.53935e-09
-1.13365e-10
-1.40709e-09
-3.83584e-09
-3.89286e-09
-3.02653e-09
-1.69974e-09
6.23063e-12
3.08743e-09
8.11541e-09
7.44151e-09
-3.31783e-09
-1.13043e-08
-8.24952e-09
-3.30107e-09
-1.07336e-10
1.57827e-09
2.31893e-09
2.77401e-09
6.00798e-10
-2.80788e-09
-2.90201e-09
-1.33576e-09
-8.56176e-10
-8.8929e-11
3.40453e-09
1.07138e-08
1.76977e-08
1.33165e-08
-4.44769e-09
-2.09107e-08
-2.27978e-08
-1.03912e-08
4.11489e-09
3.19205e-08
3.89598e-08
-5.03293e-09
-3.65919e-08
-3.12397e-08
-1.5329e-08
-4.58069e-09
1.03663e-08
1.37306e-08
-4.90794e-11
-1.99445e-08
-2.29332e-08
-1.15856e-08
-2.13619e-09
3.05883e-09
6.17582e-09
2.72978e-10
-8.10173e-09
-6.58049e-09
-2.88702e-09
-1.24654e-09
6.39074e-10
2.42376e-09
2.18423e-09
3.25119e-09
5.42437e-09
4.18944e-09
2.12285e-09
4.27678e-09
7.72789e-09
7.198e-09
2.52295e-09
-1.96581e-09
-4.58241e-09
-5.14529e-09
-5.34173e-09
-5.18044e-09
-2.86019e-09
-2.03284e-10
1.29962e-09
3.64132e-09
5.53193e-09
3.16034e-09
-7.13195e-10
-3.04171e-09
-2.63356e-09
1.91988e-09
2.71365e-09
7.82207e-09
1.00529e-08
2.76001e-09
-8.42896e-09
-1.06072e-08
-4.45912e-09
2.23168e-09
9.40806e-09
1.28081e-08
1.12338e-09
-1.11224e-08
-8.72745e-09
-1.83437e-09
3.13057e-09
4.91178e-09
1.75865e-09
-6.79262e-10
1.86187e-09
5.19081e-09
5.32069e-09
2.54748e-09
-3.09147e-09
-9.69842e-09
-1.03009e-08
-5.3365e-09
-1.42421e-09
-1.77955e-10
-6.47657e-11
-1.37716e-10
3.29313e-10
3.23021e-09
4.26636e-09
-1.43703e-09
-2.93155e-09
-8.21353e-10
4.60019e-11
-9.27251e-10
-1.67127e-09
-4.30942e-10
-3.33865e-09
-8.88562e-10
-2.54551e-10
-3.64525e-10
3.71099e-10
9.38826e-10
-9.68775e-11
-9.67799e-10
3.22082e-10
5.00474e-09
1.55747e-08
2.8296e-08
3.58855e-08
3.46393e-08
1.73054e-08
-1.54799e-08
-4.20339e-08
-4.11763e-08
-2.16603e-08
-6.19384e-09
-1.01917e-09
-1.85838e-09
-2.55124e-09
-6.87184e-10
8.17425e-10
2.52112e-10
-1.37946e-09
-1.32842e-09
-3.87036e-10
1.21535e-10
7.30333e-10
2.35728e-09
4.56372e-09
3.48901e-09
-8.01349e-11
-7.04764e-10
7.85581e-10
5.81018e-10
-2.65111e-09
-5.05924e-09
5.20055e-09
3.26623e-09
4.39097e-09
1.03481e-08
2.16243e-08
3.53291e-08
4.50784e-08
4.73866e-08
4.67462e-08
5.19249e-08
7.13464e-08
1.11766e-07
1.79797e-07
2.77923e-07
4.0176e-07
5.39558e-07
6.86055e-07
8.33697e-07
9.24119e-07
7.97846e-07
4.16448e-07
1.22048e-07
6.21942e-08
7.90073e-08
1.01354e-07
1.26092e-07
1.52016e-07
1.92991e-07
2.85018e-07
4.56735e-07
6.87684e-07
8.51212e-07
7.73575e-07
4.58176e-07
1.22697e-07
-4.62793e-08
-4.6198e-08
-1.28733e-08
6.54013e-10
5.00907e-09
2.33914e-08
5.69279e-08
1.02116e-07
1.733e-07
2.95265e-07
4.70844e-07
6.61957e-07
8.37755e-07
9.3937e-07
8.87437e-07
7.58593e-07
7.62569e-07
1.02156e-06
1.52466e-06
2.1711e-06
2.74117e-06
3.21218e-06
4.13361e-06
6.06537e-06
8.1979e-06
6.86345e-06
1.10281e-06
-1.67293e-06
-4.58372e-07
1.4387e-06
2.96124e-06
3.43783e-06
2.93325e-06
2.44903e-06
2.71822e-06
3.9044e-06
5.77669e-06
7.39965e-06
7.35822e-06
5.22202e-06
1.76875e-06
-7.71365e-07
-8.27846e-07
-2.98357e-07
-5.1981e-08
-2.53596e-07
-7.59134e-08
-2.35829e-07
-4.78661e-07
-7.17445e-07
-9.38691e-07
-1.06791e-06
-1.0295e-06
-9.8239e-07
-1.33885e-06
-2.18702e-06
-3.01255e-06
-3.61679e-06
-4.44845e-06
-6.06137e-06
-8.71258e-06
-1.19476e-05
-1.45327e-05
-1.55674e-05
-1.44283e-05
-1.105e-05
-1.01832e-05
-1.16251e-05
-7.51661e-06
-3.15142e-06
-1.68285e-06
-3.21689e-06
-6.80348e-06
-1.03974e-05
-1.27312e-05
-1.41474e-05
-1.51187e-05
-1.50541e-05
-1.31475e-05
-9.40826e-06
-5.08355e-06
-4.31352e-06
-5.25823e-06
-3.13834e-06
-1.06654e-06
-4.48404e-07
-9.55311e-08
-2.01781e-07
-3.63785e-07
-4.37619e-07
-4.81405e-07
-5.34744e-07
-6.01437e-07
-7.21778e-07
-1.01632e-06
-1.41727e-06
-1.71441e-06
-1.73043e-06
-1.72632e-06
-2.09444e-06
-2.96509e-06
-3.9755e-06
-4.40226e-06
-4.15458e-06
-3.81039e-06
-3.89932e-06
-5.51263e-06
-7.82445e-06
-5.40587e-06
-2.20332e-06
-1.25423e-06
-1.96981e-06
-3.78963e-06
-5.34265e-06
-5.78671e-06
-5.55496e-06
-5.39692e-06
-5.63988e-06
-6.30135e-06
-7.31066e-06
-8.11684e-06
-7.64787e-06
-6.70163e-06
-5.19138e-06
-2.08076e-06
-7.07916e-07
-5.25853e-08
2.35706e-08
-4.68844e-08
-9.68673e-08
-1.02268e-07
-7.89655e-08
-3.3312e-08
6.66216e-08
1.43519e-07
3.07364e-08
-1.99627e-07
-3.31634e-07
-3.53792e-07
-4.68347e-07
-7.17632e-07
-9.06078e-07
-8.08837e-07
-4.9941e-07
-2.02806e-07
1.98274e-07
2.69662e-07
-1.82784e-06
-2.47274e-06
-8.25295e-07
-8.15142e-08
1.30725e-07
-1.08547e-07
-5.81663e-07
-8.82834e-07
-8.39056e-07
-6.067e-07
-3.54751e-07
-1.68136e-07
-1.86652e-07
-6.63467e-07
-1.88809e-06
-3.53218e-06
-4.74481e-06
-3.25376e-06
-1.59005e-06
-1.56446e-07
5.45504e-08
6.08551e-08
8.74714e-09
-1.58759e-08
1.65935e-09
3.40388e-08
1.00223e-07
2.76854e-07
4.23823e-07
3.56205e-07
1.47736e-07
-9.68014e-08
-3.24282e-07
-4.19448e-07
-3.31491e-07
-1.91986e-07
-7.83503e-08
-9.08656e-09
5.99803e-08
2.7907e-07
-1.35264e-08
-8.1067e-07
-3.329e-07
-7.11083e-09
8.5756e-08
1.53202e-07
1.64722e-07
1.22578e-07
1.01988e-07
1.48258e-07
2.72924e-07
5.00622e-07
8.3413e-07
1.24694e-06
1.35568e-06
3.78359e-07
-2.01959e-06
-4.07452e-06
-2.97822e-06
-4.82987e-07
1.83638e-10
5.92094e-08
3.36394e-08
-1.3609e-09
3.22495e-09
1.76897e-08
1.93767e-08
3.98487e-08
1.36661e-07
2.67209e-07
2.4956e-07
-3.88344e-09
-2.95029e-07
-3.18563e-07
-1.60192e-07
-5.30594e-08
-4.34947e-09
-4.03941e-09
-4.34486e-08
-2.27614e-08
4.30348e-09
-1.49348e-07
-8.41581e-08
-1.76007e-08
-1.76803e-08
5.68329e-09
1.90714e-08
2.31276e-08
2.34782e-08
2.49436e-08
4.63771e-08
1.32015e-07
3.17998e-07
5.79312e-07
9.59347e-07
1.34873e-06
7.28303e-07
-2.54531e-06
-3.01796e-06
-1.22145e-06
-7.59436e-08
2.26854e-08
2.69131e-08
6.02481e-09
1.21163e-09
8.76007e-09
1.54954e-08
1.5729e-08
-5.01668e-09
2.33857e-08
1.10983e-07
8.85337e-08
-8.70784e-08
-1.43028e-07
-7.65108e-08
-1.35887e-08
2.63828e-08
-5.59738e-09
-6.16854e-08
-3.8198e-08
-1.23406e-08
-4.45649e-08
-1.60521e-08
-2.57254e-09
5.30942e-09
2.07846e-08
1.63199e-08
-6.28664e-09
-4.20385e-08
-8.7496e-08
-1.17517e-07
-8.70893e-08
5.26803e-09
1.31534e-07
3.04936e-07
6.58195e-07
1.26988e-06
2.43495e-07
-1.01606e-06
-1.88116e-06
-2.49482e-07
-2.4117e-09
6.77928e-09
5.96399e-09
7.27435e-09
8.97262e-09
7.34063e-09
2.26349e-08
4.54758e-08
-5.54202e-09
-1.98848e-08
-7.97489e-09
-2.34602e-08
-1.76678e-08
-6.05033e-09
8.91459e-09
2.70387e-08
-4.42905e-09
-4.80177e-08
-2.22119e-08