/*--------------------------------*- C++ -*----------------------------------*\
| =========                 |                                                 |
| \\      /  F ield         | OpenFOAM: The Open Source CFD Toolbox           |
|  \\    /   O peration     | Version:  5.0                                   |
|   \\  /    A nd           | Web:      www.OpenFOAM.org                      |
|    \\/     M anipulation  |                                                 |
\*---------------------------------------------------------------------------*/
FoamFile
{
    version     2.0;
    format      ascii;
    class       volScalarField;
    location    "50.4676134421789371";
    object      SGSDiss;
}
// * * * * * * * * * * * * * * * * * * * * * * * * * * * * * * * * * * * * * //

dimensions      [0 2 -3 0 0 0 0];

internalField   nonuniform List<scalar> 
60000
(
3.47716e-08
7.08088e-10
-2.06814e-08
-1.95341e-08
-9.58665e-09
-1.10204e-09
4.24702e-09
8.23517e-09
1.66876e-08
3.43632e-08
5.29156e-08
4.96054e-08
2.78456e-08
1.53461e-08
1.56878e-08
2.01381e-08
2.9077e-08
5.01484e-08
8.91295e-08
1.45532e-07
2.12034e-07
3.04455e-07
4.44629e-07
6.66465e-07
1.02673e-06
1.52233e-06
1.95481e-06
1.91925e-06
1.28748e-06
5.9944e-07
3.23515e-07
3.20669e-07
3.82046e-07
3.89274e-07
2.49128e-07
5.78757e-08
5.52355e-10
2.1106e-08
4.39505e-08
5.17966e-08
2.12332e-06
1.58733e-06
8.46425e-07
2.77146e-07
-9.07274e-08
-1.53492e-07
-2.6764e-08
8.00817e-08
2.34399e-07
7.48429e-07
1.58032e-06
1.95155e-06
1.24896e-06
3.57696e-07
2.46711e-07
7.15254e-07
1.32998e-06
1.69639e-06
1.43296e-06
6.75092e-07
-7.99744e-08
2.42231e-07
2.40845e-06
5.79589e-06
9.52639e-06
1.33892e-05
1.68561e-05
1.83929e-05
1.55732e-05
8.51317e-06
2.5528e-06
1.27512e-06
2.7722e-06
5.15234e-06
6.23366e-06
3.73401e-06
2.16708e-07
-2.83589e-07
7.52637e-07
1.7774e-06
1.6588e-06
2.68583e-06
2.69645e-06
1.91027e-06
1.26072e-08
-1.69598e-06
-1.87833e-06
-1.37936e-06
-1.29333e-06
-1.10086e-06
-3.1644e-07
3.087e-07
-6.56126e-07
-2.69692e-06
-2.88587e-06
-1.21584e-06
-3.08121e-08
-1.68385e-06
-6.1662e-06
-9.90099e-06
-1.05565e-05
-9.36266e-06
-7.91996e-06
-8.9315e-06
-1.39026e-05
-2.17276e-05
-2.90905e-05
-3.20671e-05
-2.9119e-05
-2.4293e-05
-2.34136e-05
-2.33426e-05
-2.01698e-05
-1.54552e-05
-9.11979e-06
-3.53128e-06
-4.59716e-06
-7.22187e-06
-4.18314e-06
-5.20364e-07
-1.21987e-06
-1.01752e-06
-1.52287e-06
-1.89009e-06
-1.89753e-06
-2.63274e-06
-3.10572e-06
-2.43252e-06
-1.67759e-06
-1.22005e-06
-8.53369e-07
-6.07601e-07
-1.02382e-06
-2.20793e-06
-2.59973e-06
-1.61011e-06
-6.99414e-07
-1.43973e-06
-4.30285e-06
-6.83227e-06
-5.83561e-06
-3.66225e-06
-2.48913e-06
-2.66009e-06
-4.04299e-06
-6.34925e-06
-8.20777e-06
-8.99295e-06
-9.21581e-06
-1.00178e-05
-1.20913e-05
-1.37323e-05
-1.2926e-05
-1.06625e-05
-8.0919e-06
-5.96601e-06
-5.51122e-06
-6.43898e-06
-5.14315e-06
-2.50112e-06
-4.26317e-07
-5.25731e-08
-1.18137e-07
-5.63497e-07
-7.55048e-07
-1.04329e-06
-1.79611e-06
-2.22647e-06
-1.78838e-06
-1.07091e-06
-5.16758e-07
-1.86402e-07
8.89578e-08
2.56509e-09
-4.2557e-07
-1.78567e-07
5.89239e-07
8.14975e-07
-5.6216e-07
-3.51457e-06
-3.86794e-06
-1.6995e-06
-4.46229e-07
-2.87827e-07
-5.03207e-07
-7.43416e-07
-6.54428e-07
-4.30504e-07
-1.00902e-07
5.16292e-07
7.54427e-07
-7.54636e-07
-3.12899e-06
-4.26904e-06
-3.68302e-06
-2.25872e-06
-1.0972e-06
-1.4823e-06
-2.61274e-06
-1.77209e-06
-4.47582e-07
1.91645e-07
3.09634e-07
4.62224e-07
6.79888e-07
8.92276e-07
4.20597e-07
-7.46796e-07
-1.76515e-06
-1.7149e-06
-8.26123e-07
-2.44432e-07
-2.90999e-08
1.7377e-07
3.32367e-07
5.77624e-07
1.1388e-06
1.42993e-06
1.27788e-06
-6.93644e-07
-3.17116e-06
-1.78576e-06
-2.88967e-07
-1.67444e-07
-2.41681e-07
-6.61119e-08
1.86396e-08
3.05923e-08
4.47037e-08
1.84829e-07
8.26261e-07
1.90928e-06
1.74623e-06
-1.7849e-07
-1.75239e-06
-1.50351e-06
-4.55182e-07
3.6311e-07
-1.24519e-07
-9.96895e-07
-5.96669e-07
-2.59227e-07
-5.66887e-08
2.89993e-08
3.45393e-07
9.92952e-07
1.53418e-06
1.27503e-06
-1.55821e-07
-1.86709e-06
-1.79431e-06
-5.55075e-07
-6.71367e-08
4.86004e-08
2.85187e-07
7.51745e-07
9.29783e-07
7.32061e-07
1.00892e-06
1.02147e-06
-1.45589e-06
-2.13337e-06
-5.28353e-07
-1.45182e-07
-4.45498e-08
3.10767e-08
1.11564e-08
-1.43491e-08
-9.27349e-09
-5.10976e-09
2.63001e-08
2.86696e-07
1.05514e-06
1.47526e-06
3.5402e-07
-9.45222e-07
-8.31178e-07
-1.51205e-07
2.95046e-07
-1.26323e-07
-2.06239e-07
-4.5742e-07
-3.10238e-07
-2.03142e-07
-8.74841e-08
1.69863e-07
7.11251e-07
1.40693e-06
1.59263e-06
1.06815e-07
-1.9801e-06
-1.39361e-06
-1.89953e-07
1.14607e-07
4.45281e-07
7.24367e-07
2.55858e-07
6.59903e-09
3.56522e-07
1.01854e-06
5.44307e-07
-1.57792e-06
-8.16383e-07
-5.99349e-08
7.52353e-08
3.94951e-08
-4.60601e-08
-4.27541e-08
-2.48978e-08
-1.28615e-08
-1.2079e-08
-1.25951e-08
7.6944e-08
4.68038e-07
9.39811e-07
4.28287e-07
-4.43176e-07
-4.42015e-07
-6.16183e-08
1.23211e-07
2.50322e-08
-2.07713e-07
-3.05506e-07
-2.30074e-07
-1.54283e-07
-6.54706e-08
7.14143e-08
3.31066e-07
8.70893e-07
1.38468e-06
6.85809e-08
-1.66833e-06
-6.9193e-07
1.1066e-07
4.7975e-07
2.158e-07
-2.85441e-07
-1.58269e-07
7.71078e-08
3.51574e-07
8.35593e-07
-2.39442e-07
-8.95679e-07
-7.98789e-08
8.70398e-08
1.3788e-08
-2.51413e-08
-1.32626e-08
-1.79348e-08
-2.56538e-08
-2.68852e-08
-2.85646e-08
-2.49163e-08
1.15239e-08
1.64028e-07
4.19656e-07
2.44605e-07
-1.61831e-07
-1.77463e-07
3.77408e-09
7.26397e-08
5.17518e-08
-7.53304e-08
-1.80073e-07
-2.03322e-07
-1.56592e-07
-7.02294e-08
3.18602e-09
9.50905e-08
4.60281e-07
1.02696e-06
-1.64308e-07
-1.10263e-06
-2.11536e-07
1.05343e-07
-7.58227e-08
-1.44267e-07
-3.8144e-08
1.99488e-08
6.57088e-08
2.74565e-07
3.75434e-07
-4.74724e-07
-1.66088e-07
1.36628e-08
1.53469e-08
3.13019e-08
2.86123e-08
-2.09108e-09
-2.66028e-08
-3.9678e-08
-4.8121e-08
-4.15044e-08
-1.98633e-08
3.31255e-10
3.5056e-08
8.97641e-08
5.93848e-08
-1.2084e-08
7.61254e-09
5.58219e-08
1.29143e-07
9.48684e-08
-1.00245e-07
-2.17644e-07
-1.91782e-07
-1.03669e-07
-3.62502e-08
-6.4265e-09
2.33621e-08
2.70342e-07
6.09958e-07
-4.63689e-07
-5.07173e-07
-5.46858e-08
-5.86649e-09
-2.77148e-08
-2.00512e-08
-3.4441e-09
9.32101e-09
5.09259e-08
1.97085e-07
-2.39723e-08
-1.58829e-07
-2.88772e-08
2.03253e-08
5.71785e-08
4.1056e-08
4.98169e-09
-1.53409e-08
-2.4681e-08
-4.48839e-08
-6.10042e-08
-3.86249e-08
-8.32214e-09
1.45298e-09
6.37632e-09
8.16891e-09
8.61489e-09
1.60682e-08
1.99027e-08
8.52918e-08
1.14064e-07
-6.54871e-08
-1.85137e-07
-1.27221e-07
-6.1199e-08
-2.53437e-08
-4.55322e-09
-3.17453e-10
1.57094e-08
2.22106e-07
1.30684e-07
-3.91704e-07
-8.25172e-08
2.69091e-08
7.14196e-09
-3.23067e-08
-3.7586e-08
-1.86161e-08
9.39835e-09
6.93823e-08
7.09048e-08
-4.73997e-08
-3.36838e-08
1.46876e-08
3.41904e-08
2.60178e-08
6.15374e-09
-2.51956e-09
5.18007e-09
-3.27842e-09
-5.51195e-08
-7.01756e-08
-2.37469e-08
-6.54787e-10
3.38375e-09
1.40586e-09
1.69309e-11
2.27113e-09
7.44692e-09
3.0667e-08
3.03658e-08
-4.2757e-08
-6.60292e-08
-3.34696e-08
-2.95106e-08
-2.58094e-08
-6.95802e-09
-5.31453e-10
2.53625e-09
6.05295e-08
1.39316e-07
-1.65065e-07
-9.71878e-08
3.77362e-08
6.55526e-08
-2.78246e-08
-8.85845e-08
-5.75412e-08
-1.06565e-08
3.9052e-08
6.29518e-08
-3.14749e-09
-4.12527e-08
-1.1029e-08
1.52552e-08
1.57771e-08
1.84901e-09
-2.42833e-09
1.50696e-08
4.11203e-08
1.03938e-08
-8.06497e-08
-6.13173e-08
-6.56846e-09
6.17899e-09
3.52935e-09
-6.52566e-10
-5.08521e-11
7.93132e-09
4.36415e-09
-2.73321e-08
-2.6615e-08
9.45551e-10
1.54548e-08
-2.74545e-09
-2.11784e-08
-1.19495e-08
-2.67879e-09
1.01041e-09
2.74148e-08
7.63485e-08
-6.55174e-08
-7.93952e-08
3.18919e-08
7.11144e-08
-3.10834e-08
-6.98121e-08
-3.12665e-08
-9.04069e-09
6.85028e-09
1.08774e-08
-3.45848e-08
-1.76258e-08
9.6617e-09
1.25495e-08
2.7978e-09
-9.26304e-09
-1.04346e-08
1.40428e-09
2.96716e-08
6.38447e-08
-1.02067e-08
-9.49977e-08
-3.30456e-08
1.84233e-09
7.05444e-09
2.32357e-09
3.59613e-09
1.11696e-08
-4.68151e-09
-3.07101e-08
-1.62796e-08
-1.55332e-10
4.66231e-09
4.26077e-09
4.81007e-10
-3.28462e-09
-4.38849e-09
-2.56618e-09
1.16304e-08
4.07701e-08
-1.84614e-08
-5.44315e-08
4.16425e-09
1.41935e-08
-1.98823e-08
-1.45772e-08
3.32408e-09
2.31084e-08
2.28868e-08
-1.45353e-08
-3.19818e-08
-1.08536e-08
6.73621e-09
1.09271e-08
-9.89749e-09
-2.364e-08
-1.6576e-08
-7.08457e-09
4.46846e-09
3.74137e-08
5.25143e-08
-4.88444e-08
-7.00188e-08
-1.02436e-08
4.397e-09
5.82964e-09
8.24033e-09
1.26262e-08
-2.52256e-09
-2.10185e-08
-1.39529e-08
-3.68345e-09
-1.11402e-09
-3.20483e-10
1.69456e-09
3.72116e-09
1.35777e-10
-3.07364e-09
6.30301e-09
3.05254e-08
1.34763e-09
-4.14439e-08
-1.05881e-08
4.42341e-09
1.25845e-09
-1.9348e-10
5.48862e-09
1.63944e-08
3.53914e-08
4.66403e-08
3.2418e-08
5.25094e-08
8.20423e-08
2.02437e-09
-1.1346e-07
-1.11211e-07
-5.05987e-08
-1.75063e-08
-7.18469e-09
6.06882e-09
3.64064e-08
2.09991e-08
-5.3359e-08
-3.28695e-08
-1.25418e-09
6.82734e-09
1.10246e-08
1.08861e-08
3.35192e-09
-8.11121e-09
-9.51725e-09
-6.20573e-09
-5.94215e-09
-4.32223e-09
-4.34985e-10
2.28904e-09
5.06146e-09
3.20325e-09
6.50413e-09
2.07397e-08
7.13938e-09
-2.6376e-08
-1.24409e-08
1.08083e-10
-1.24437e-09
2.63025e-09
1.18239e-08
1.60207e-08
1.7765e-08
2.41007e-08
4.52415e-08
7.9194e-08
6.45397e-08
-2.07745e-08
-8.70011e-08
-1.00626e-07
-6.51906e-08
-2.36265e-08
-1.01478e-08
-1.0322e-08
3.54545e-09
2.88557e-08
7.67409e-09
-3.63582e-08
-1.85023e-08
2.39625e-10
8.32032e-09
2.10953e-09
3.60392e-09
2.07475e-09
6.88688e-09
4.14252e-09
-1.90008e-08
-1.81946e-08
-4.801e-09
6.52726e-12
2.87362e-09
5.2062e-09
7.19591e-09
8.99634e-09
9.44355e-10
-1.61271e-08
-1.54595e-08
-4.96626e-10
8.25175e-09
5.04266e-09
7.31915e-09
1.35882e-08
1.17198e-08
-3.34521e-09
-3.48095e-08
-4.70686e-08
-1.03184e-08
3.04414e-08
1.96056e-08
-4.03716e-08
-8.91463e-09
3.04257e-08
2.82136e-08
-3.96457e-08
-4.99548e-08
-2.56263e-09
2.74112e-08
1.93788e-08
-2.39559e-08
-2.54439e-08
-6.51493e-09
-2.90727e-08
-2.40198e-09
1.97164e-08
2.01362e-08
-2.7635e-08
-3.39143e-08
-7.57832e-09
-3.74962e-10
-5.42535e-09
-2.27434e-09
3.64446e-09
9.66153e-09
2.07273e-09
-1.09728e-08
-1.15452e-08
1.16825e-09
2.10576e-08
1.31173e-08
-2.0503e-08
-1.58021e-08
-2.95536e-09
-5.3372e-09
-6.20174e-09
3.60201e-09
3.95318e-08
6.69e-08
-3.73243e-08
-9.30875e-08
-2.1309e-08
7.88565e-09
1.07207e-08
3.43559e-08
5.00885e-08
-4.59971e-08
-6.79112e-08
-6.02134e-09
2.87417e-08
3.68449e-08
-7.14394e-09
-4.24534e-08
-2.91898e-08
-1.73821e-08
1.11883e-09
9.07339e-09
-4.49958e-09
-9.11409e-09
-3.66606e-09
-1.12638e-09
-5.20082e-09
-3.93366e-09
2.27856e-09
9.74383e-09
2.55776e-09
-3.60482e-09
3.76278e-09
1.73572e-08
1.97366e-08
-6.86081e-09
-2.94365e-08
-1.75072e-08
1.90381e-10
-1.9748e-09
-1.16224e-08
-3.61696e-09
3.4312e-09
-2.96724e-09
-3.68821e-09
5.65234e-09
7.48475e-09
5.93533e-10
-5.01276e-09
-2.94648e-09
2.7794e-08
7.85992e-08
-1.15164e-08
-6.56471e-08
-2.21739e-08
6.33646e-09
9.64203e-09
-9.08712e-09
-3.43398e-10
-7.27307e-10
-9.78427e-10
7.33237e-10
-4.9809e-10
-3.09888e-09
-1.55381e-09
1.84372e-09
1.7075e-09
-1.66296e-09
-3.86955e-10
3.13494e-09
7.91669e-09
1.39784e-08
6.77027e-09
-7.07816e-09
-8.61377e-09
-4.67049e-09
-6.22548e-09
-8.0837e-09
-2.70231e-09
2.17717e-09
9.13219e-10
-1.91248e-09
-3.14173e-09
-3.35051e-09
-1.32207e-09
3.0873e-10
2.0023e-09
3.40717e-09
-8.55344e-10
-9.09887e-09
-1.72863e-09
2.79013e-08
5.85946e-08
-9.1998e-09
-5.20541e-08
-4.07706e-08
-2.14633e-08
-6.54218e-09
2.80347e-09
5.01703e-09
1.41626e-10
-6.71215e-09
-9.39942e-09
-5.33561e-09
-6.1637e-10
3.55478e-09
7.0287e-09
2.99268e-09
-6.95986e-10
2.8829e-09
2.85576e-09
-2.44408e-09
-8.5286e-09
-1.20761e-08
-5.25876e-09
6.52028e-09
1.92106e-08
1.28517e-08
-3.53059e-09
-6.95114e-09
-5.00791e-09
-5.84493e-09
-5.73348e-09
-1.66481e-09
4.34487e-09
1.04723e-08
1.11889e-08
4.14185e-09
-8.58139e-09
-2.0999e-08
-1.37146e-08
4.20488e-09
2.25194e-08
4.37014e-09
-1.95524e-08
-2.06433e-08
-1.37651e-08
-4.89789e-09
1.16265e-08
1.90612e-08
1.24053e-08
-9.9094e-09
-2.18394e-08
-1.40319e-08
-2.63981e-09
2.15619e-09
-2.05023e-09
-8.56747e-09
-8.08944e-09
-3.57592e-09
-2.33168e-09
-2.07145e-09
5.7358e-10
2.89177e-09
6.13192e-10
2.31509e-09
9.16712e-09
5.26783e-09
-1.25588e-08
-1.80971e-08
-8.47592e-09
-2.72107e-10
3.37011e-09
3.47651e-09
2.14205e-09
2.08939e-09
2.26611e-09
-5.46193e-10
-5.37652e-09
-5.65421e-09
-3.78092e-09
-1.88585e-09
2.14639e-09
8.75646e-10
-4.72227e-09
-3.49488e-09
5.16574e-10
4.71549e-09
2.15385e-09
5.48572e-09
6.94272e-09
3.54462e-09
-3.40894e-09
-3.87927e-09
4.67796e-09
1.27552e-08
5.03536e-09
-1.5932e-08
-2.30438e-08
-1.15105e-08
-1.87085e-09
4.27165e-10
9.6732e-10
8.87417e-10
-9.794e-10
-1.71331e-09
2.41441e-10
1.97366e-09
7.07532e-10
-3.1984e-11
2.13494e-09
2.71595e-09
-6.38227e-10
-2.86504e-09
-2.61058e-09
-1.84623e-09
-8.10081e-10
-4.77753e-10
-1.18824e-09
4.24169e-10
8.09174e-09
1.11648e-08
-4.85158e-09
-9.85488e-09
-4.64931e-09
-1.97435e-09
-1.55278e-09
-3.49381e-10
-2.42876e-09
1.03556e-09
1.07822e-09
-2.18609e-09
-1.94078e-09
2.16455e-09
5.83178e-09
3.86627e-09
1.05738e-09
2.50587e-09
4.27659e-09
6.85532e-09
1.30385e-08
1.65056e-08
6.62334e-09
-1.1454e-08
-2.06129e-08
-1.66839e-08
-8.46793e-09
-2.29958e-09
1.02068e-09
2.0851e-09
1.36522e-10
-2.20288e-09
-1.44186e-09
-5.92851e-10
-1.71406e-09
-1.86717e-09
-4.39738e-10
2.40126e-10
3.74917e-10
2.55399e-10
2.0046e-09
6.11669e-09
5.57784e-09
2.98408e-10
-2.27697e-09
-3.87132e-09
-6.4428e-09
-6.3785e-09
3.20967e-09
3.172e-09
3.25601e-09
7.65458e-09
1.84404e-08
3.30998e-08
4.09219e-08
3.58583e-08
2.91196e-08
3.35591e-08
4.79489e-08
7.1649e-08
1.08567e-07
1.65104e-07
2.49401e-07
3.67867e-07
5.12358e-07
6.42149e-07
6.91843e-07
5.9155e-07
4.09116e-07
3.26773e-07
3.65398e-07
4.70437e-07
6.52307e-07
8.94935e-07
1.05864e-06
1.01873e-06
8.78261e-07
8.39105e-07
9.62011e-07
1.17297e-06
1.30499e-06
1.12199e-06
5.09815e-07
-1.00646e-07
-1.24781e-07
-2.34819e-08
-2.18732e-09
1.77383e-09
9.09993e-08
8.24178e-08
9.90573e-08
1.91334e-07
3.63271e-07
6.78391e-07
1.0014e-06
9.46922e-07
4.91304e-07
2.28021e-07
4.03486e-07
7.24395e-07
1.0143e-06
1.46469e-06
2.47831e-06
4.22888e-06
6.39572e-06
8.38699e-06
9.64115e-06
8.22799e-06
2.48209e-06
-2.12507e-06
-1.35868e-06
2.3555e-06
7.19275e-06
1.16773e-05
1.3918e-05
1.28604e-05
9.62682e-06
6.99041e-06
6.7868e-06
8.6921e-06
1.13222e-05
1.30828e-05
1.2438e-05
5.95226e-06
-2.02295e-06
-1.75763e-06
-4.02457e-07
-7.67377e-09
1.69109e-07
2.10283e-07
-1.10369e-07
-4.89952e-07
-1.00551e-06
-1.46053e-06
-1.55898e-06
-1.69587e-06
-2.11669e-06
-2.59385e-06
-2.4617e-06
-2.22392e-06
-2.68526e-06
-3.47823e-06
-4.07955e-06
-5.16824e-06
-8.0057e-06
-1.2385e-05
-1.61882e-05
-1.80013e-05
-2.14797e-05
-2.46602e-05
-1.90707e-05
-1.17355e-05
-9.04736e-06
-1.15172e-05
-1.69788e-05
-2.18683e-05
-2.52373e-05
-2.7789e-05
-2.90975e-05
-2.88832e-05
-2.78598e-05
-2.50742e-05
-1.72264e-05
-3.26073e-06
-6.17442e-07
-8.55794e-06
-3.91792e-06
-7.4427e-07
-3.99668e-07
8.26078e-09
-2.75682e-07
-6.68195e-07
-9.21134e-07
-1.16985e-06
-1.37411e-06
-1.57213e-06
-1.66968e-06
-1.66314e-06
-1.52346e-06
-1.19227e-06
-1.10304e-06
-1.22794e-06
-1.29877e-06
-1.63356e-06
-2.93465e-06
-4.92897e-06
-6.61764e-06
-7.8493e-06
-1.0087e-05
-1.24758e-05
-8.97349e-06
-4.46556e-06
-2.91853e-06
-3.57508e-06
-5.752e-06
-7.98051e-06
-9.93956e-06
-1.17112e-05
-1.25759e-05
-1.23619e-05
-1.19456e-05
-1.16513e-05
-1.10871e-05
-9.68941e-06
-7.23202e-06
-9.5355e-06
-8.09997e-06
-2.46335e-06
-9.12615e-07
-2.28783e-08
1.00289e-07
-7.56878e-08
-1.14228e-07
-1.57659e-07
-3.88284e-07
-6.22479e-07
-6.83084e-07
-5.49536e-07
-4.19742e-07
-2.83388e-07
-1.00842e-07
4.75806e-08
2.33399e-07
2.58135e-07
-2.5591e-07
-7.09865e-07
-6.53533e-07
-5.27821e-07
-1.12256e-06
-3.56179e-06
-3.58106e-06
-1.31883e-06
-4.48562e-07
-2.50887e-07
-2.97234e-07
-2.58438e-07
-1.6285e-07
-3.08237e-07
-7.69217e-07
-1.17658e-06
-1.4844e-06
-1.87005e-06
-1.96414e-06
-1.26151e-06
-8.32068e-07
-4.01765e-06
-7.72264e-06
-4.1548e-06
-2.05566e-06
-3.11707e-07
1.58927e-07
1.98496e-07
2.16639e-07
3.263e-07
2.67847e-07
-1.467e-07
-4.77982e-07
-3.92291e-07
-5.70724e-08
1.74895e-07
3.15531e-07
4.68113e-07
5.4331e-07
2.55115e-07
-2.97709e-07
-2.88292e-07
8.41562e-08
4.05591e-07
4.30605e-07
-6.15182e-07
-1.55372e-06
-5.73751e-07
-1.83112e-07
-1.34342e-07
-2.08089e-08
2.92008e-08
5.41029e-08
1.33706e-07
2.98759e-07
4.98275e-07
6.3238e-07
4.92337e-07
1.03257e-07
3.24274e-07
1.64928e-06
1.87616e-06
-2.86694e-06
-5.15457e-06
-3.43526e-06
-1.06335e-06
-7.552e-08
1.2917e-07
1.64729e-07
3.07008e-07
5.05272e-07
4.18036e-07
-3.25112e-07
-6.10096e-07
-2.79041e-07
2.08716e-07
5.87373e-07
7.19165e-07
3.86398e-07
-4.02184e-07
-6.13367e-07
-2.52952e-07
3.07449e-08
2.08505e-07
2.6766e-07
-2.31023e-08
-6.41542e-07
-3.28345e-07
-1.15212e-07
-4.40887e-08
3.30049e-08
5.50155e-08
-1.63692e-08
-8.67993e-08
-9.7193e-08
-4.73037e-08
7.08061e-08
2.89073e-07
3.96667e-07
2.38391e-07
6.39611e-07
2.07438e-06
1.62574e-06
-2.63968e-06
-2.54205e-06
-2.20539e-06
-4.89318e-07
-1.3874e-08
5.04476e-08
1.37018e-07
3.34255e-07
6.03946e-07
3.33169e-07
-6.513e-07
-5.96335e-07
-1.19515e-07
4.21806e-07
6.9991e-07
5.4447e-08
-7.20662e-07
-4.85356e-07
-9.50377e-08
3.56578e-08
8.93745e-08
1.1945e-07
6.86729e-08
-2.52626e-07
-2.287e-07
-5.10475e-08
3.1116e-08
9.44052e-08
7.00579e-08
3.66216e-08
1.02316e-08
-5.42268e-08
-1.48711e-07
-1.78604e-07
-7.05763e-08
9.50294e-08
2.34097e-07
2.52479e-07
7.35233e-07
1.82109e-06
9.33608e-07
1.21777e-07
-2.40681e-06
-1.11805e-06
-1.579e-07
1.33594e-09
6.72638e-08
1.56723e-07
3.13887e-07
5.9922e-07
3.7716e-08
-8.38844e-07
-4.46048e-07
-1.09618e-08
2.4512e-07
-9.46291e-08
-3.94545e-07
-1.53176e-07
3.22187e-10
4.35225e-08
5.0046e-08
5.3439e-08
6.11336e-08
-9.37669e-08
-1.90749e-07
-1.82064e-08
7.15384e-08
7.81935e-08
2.74728e-08
3.11618e-08
4.68655e-08
3.43461e-08
-3.18875e-08
-1.14553e-07
-1.25012e-07
-3.92839e-08
5.0203e-08
1.40167e-07
2.21299e-07
6.92904e-07
1.53365e-06
1.11788e-06
-8.32899e-07
-1.46121e-06
-3.51714e-07
2.87314e-08
7.89695e-08
8.04561e-09
5.36988e-10
2.15155e-07
4.97347e-07
-2.83718e-07
-7.35643e-07
-2.13907e-07
-1.78532e-08
-6.28563e-08
-8.90954e-08
-2.35242e-08
7.20263e-09
2.59555e-08
2.98667e-08
4.0036e-08
4.69205e-08
-2.42066e-08
-1.45012e-07
-7.75791e-09
5.911e-08
1.24461e-08
-1.77812e-09
1.57205e-08
3.14011e-08
3.60862e-08
1.24949e-08
-4.25489e-08
-7.65173e-08
-4.9956e-08
-5.2106e-09
2.78966e-08
6.18581e-08
1.54329e-07
6.29256e-07
6.29691e-07
6.10177e-07
-8.62535e-07
-5.18459e-07
-2.23829e-08
-7.7451e-08
-1.82854e-07
-1.45129e-07
-1.76372e-08
1.84813e-07
2.1675e-07
-4.69171e-07
-3.28786e-07
-2.55778e-08
-2.8429e-08
-5.70391e-08
-2.45534e-08
-6.70527e-10
2.91298e-09
1.12553e-08
3.09759e-08
4.20456e-08
2.05402e-09
-7.84395e-08
-1.63586e-08
2.93385e-10
1.57211e-09
1.19165e-08
1.06414e-08
6.14867e-09
8.9561e-09
1.1867e-08
-1.02755e-08
-5.09253e-08
-4.55404e-08
-1.10912e-08
2.97119e-09
1.22108e-08
2.23855e-08
1.16621e-07
2.01235e-07
8.41461e-07
1.78034e-07
-5.04317e-07
-3.51997e-07
-3.61027e-07
-2.8143e-07
-1.3891e-07
-3.44276e-08
4.58209e-08
8.51516e-08
-1.12332e-07
-2.51264e-07
-2.10072e-08
1.67211e-08
-3.14556e-08
-2.33856e-08
-7.86652e-09
-8.88304e-09
-5.25742e-09
1.06824e-08
3.26324e-08
2.19237e-08
-3.5328e-08
-3.73646e-08
-4.02185e-10
1.77414e-08
1.21593e-08
2.20188e-09
-4.69107e-09
-1.04534e-08
-5.74985e-09
-1.40448e-09
-3.77099e-08
-5.45373e-08
-1.70274e-08
1.48882e-09
5.34722e-09
3.91403e-09
1.89214e-08
6.42953e-08
4.29948e-07
6.87571e-07
-9.45468e-08
-6.34733e-07
-5.50977e-07
-2.63531e-07
-9.2493e-08
-2.43186e-08
2.34266e-08
4.0338e-08
-5.19628e-08
-1.32032e-07
-1.9901e-08
3.03142e-08
1.13564e-08
6.81619e-09
1.58922e-08
-2.61925e-08
-6.45651e-08
-2.32004e-08
1.71976e-08
2.89407e-08
-1.64822e-08
-2.90687e-08
-1.12255e-08
2.94624e-11
9.89302e-09
1.61696e-08
5.97677e-09
-2.1861e-08
-3.13998e-08
-6.64693e-09
-1.22238e-08
-6.45517e-08
-3.82525e-08
-8.00003e-10
9.95508e-09
9.13154e-10
3.62628e-09
2.59952e-08
1.12342e-07
2.36371e-07
-1.07522e-08
-3.60302e-07
-2.7275e-07
-8.64241e-08
-1.19702e-08
3.33513e-09
2.22068e-08
4.84812e-08
-9.11632e-09
-9.49308e-08
-2.8937e-08
2.65412e-08
6.51707e-08
8.96569e-08
7.24688e-08
-6.63318e-08
-1.62886e-07
-7.09632e-08
-1.25879e-09
1.1086e-08
-2.06507e-08
-2.39734e-08
-1.83541e-09
8.92043e-09
2.60261e-08
2.98793e-08
-1.92787e-09
-3.32733e-08
-3.54875e-08
-1.11448e-08
1.3048e-08
-3.66422e-08
-6.67491e-08
-1.39225e-08
3.76545e-09
9.6351e-09
3.45766e-09
1.12552e-08
1.24481e-08
-1.04214e-08
-3.61347e-08
-3.18979e-08
-1.64344e-08
-3.51768e-09
4.46071e-09
6.96288e-09
9.25849e-09
2.86589e-08
2.18212e-08
-4.73894e-08
-3.43401e-08
2.03402e-08
1.03359e-07
1.39215e-07
5.19684e-08
-9.33918e-08
-1.59808e-07
-7.66757e-08
-5.34609e-10
2.16369e-09
-1.86521e-08
-1.20913e-08
7.86589e-09
5.98943e-08
6.86876e-08
-2.36088e-08
-6.20227e-08
-3.59434e-08
-1.48664e-08
-2.18762e-09
1.52009e-08
7.9805e-09
-5.20497e-08
-3.86787e-08
-2.60029e-09
4.85826e-09
1.06877e-08
8.23509e-09
-8.36901e-09
-1.51129e-08
-6.81214e-09
-1.40894e-09
-8.66188e-10
-3.62354e-10
1.90998e-09
3.74151e-09
4.36909e-09
1.81814e-08
1.90247e-08
-2.57303e-08
-2.4894e-08
1.69958e-08
7.86752e-08
7.64704e-08
3.52395e-09
-5.63868e-08
-7.53017e-08
-4.30315e-08
1.02517e-08
3.84092e-08
1.34442e-08
4.07573e-08
1.46451e-07
1.40399e-07
-7.48362e-08
-1.52877e-07
-6.04513e-08
-1.03477e-09
-2.5647e-09
-1.46879e-08
-1.23132e-09
1.9785e-08
-3.62387e-11
-3.9745e-08
-1.94123e-08
4.02117e-10
1.05954e-08
6.05101e-09
-6.34067e-09
-1.02887e-08
-4.23421e-09
-1.07125e-09
-1.102e-09
-1.06708e-09
5.90328e-10
2.73973e-09
4.43402e-09
1.9915e-08
2.79145e-08
-2.79276e-08
-2.80091e-08
1.13762e-08
5.0959e-08
3.24994e-08
-1.29862e-08
-2.99224e-08
-2.90292e-08
-1.98838e-08
1.90296e-11
3.3057e-08
8.46747e-08
1.33942e-07
7.81556e-08
-1.17834e-07
-1.43006e-07
-4.07467e-08
-6.15649e-09
-9.12771e-09
-6.60783e-10
-5.64399e-09
-1.03495e-08
6.2048e-09
2.90482e-08
3.76634e-09
-3.12158e-08
-1.71645e-08
1.81839e-09
-1.39735e-08
-7.68769e-09
-8.62708e-09
-4.89574e-09
-7.04311e-10
-8.98747e-10
-1.57722e-09
-3.37672e-10
1.25207e-09
5.22182e-09
2.15913e-08
4.54765e-08
-8.26505e-09
-3.99721e-08
1.23126e-09
1.88174e-08
-3.82783e-09
-1.43504e-08
-9.26966e-09
-9.79153e-09
-8.91387e-09
2.0637e-09
2.70498e-08
5.01742e-08
-6.17945e-09
-9.1448e-08
-4.1424e-08
8.05418e-09
2.18078e-08
-1.68725e-08
-1.06464e-08
-2.22894e-10
-5.85262e-09
-7.7633e-09
-3.27083e-09
1.42311e-08
4.16587e-08
1.5574e-08
-2.95138e-08
-3.10736e-08
-2.76117e-08
-1.9522e-08
-7.47311e-09
1.18561e-09
1.54817e-09
-4.51564e-09
-2.34371e-09
1.07301e-10
-3.06757e-09
8.07231e-10
1.70959e-08
3.43249e-08
1.7272e-08
-1.49948e-08
-2.8632e-08
-2.76621e-08
-1.17746e-08
-1.55848e-09
-8.3085e-10
-1.81625e-09
9.86487e-10
6.88708e-09
1.14928e-08
-4.95105e-09
-2.20365e-08
6.18908e-10
3.20289e-08
1.47215e-09
-4.13219e-08
-1.39056e-08
5.40111e-09
3.72963e-08
1.01709e-08
-4.61837e-08
-2.20687e-08
-3.35211e-09
1.13822e-08
2.33226e-08
6.35031e-09
-2.04264e-08
-7.40007e-09
-1.34217e-08
-6.47113e-09
-1.82134e-10
5.61e-10
-6.14487e-10
1.11725e-09
5.32581e-09
7.37227e-09
5.34024e-09
1.14438e-08
1.34264e-08
-7.16569e-09
-2.36364e-08
-2.26132e-08
-9.22788e-09
-1.24389e-09
1.52892e-10
-3.16457e-10
3.65976e-11
8.39896e-10
1.03579e-09
1.13794e-09
3.02275e-09
1.12524e-08
1.20746e-08
-1.39752e-08
-1.96339e-08
-4.17553e-09
5.84277e-11
-5.54295e-09
1.27266e-08
8.60939e-08
2.93545e-08
-8.56666e-08
-4.60744e-08
-8.32225e-09
3.6092e-09
5.63046e-09
1.53043e-09
-1.66769e-09
-1.35591e-09
-1.68732e-09
-1.45809e-09
-2.49402e-09
-2.0766e-09
-2.22225e-10
2.41874e-09
1.03072e-08
1.99833e-08
1.54446e-08
-1.77622e-09
-1.98537e-08
-2.3557e-08
-1.1336e-08
-2.36364e-09
6.98821e-10
2.12396e-09
1.10875e-09
-2.69921e-10
1.68093e-09
4.24528e-09
4.89054e-09
2.89938e-09
-3.31273e-09
-8.15486e-09
-3.68362e-09
4.94741e-09
1.19584e-08
2.79565e-09
-2.31245e-08
-1.94419e-08
2.20544e-08
1.17877e-07
4.06239e-08
-8.53825e-08
-6.58823e-08
-2.94453e-08
-1.48769e-08
-6.60358e-09
-1.08478e-09
-1.75335e-09
-5.68809e-09
-6.30843e-09
-5.07558e-09
-3.10455e-09
-5.73555e-10
3.12374e-09
1.01854e-08
1.18149e-08
-2.03428e-09
-1.66356e-08
-1.39331e-08
-6.13512e-09
-1.04506e-09
1.68438e-09
2.81169e-09
3.8349e-09
1.69236e-09
-3.64383e-09
-4.76939e-09
-2.42046e-09
-1.46452e-09
-8.63789e-10
3.17755e-09
1.27385e-08
2.40771e-08
2.14651e-08
-2.39503e-09
-2.89703e-08
-3.6237e-08
-2.02897e-08
1.22414e-09
3.64986e-08
6.01601e-08
3.24826e-09
-5.26401e-08
-5.0932e-08
-2.66456e-08
-9.07307e-09
1.21354e-08
1.97712e-08
4.13552e-09
-2.6471e-08
-3.63073e-08
-2.10359e-08
-5.12205e-09
3.07362e-09
8.40581e-09
2.16376e-09
-1.16085e-08
-1.15517e-08
-5.25612e-09
-2.37388e-09
2.49026e-10
3.01088e-09
2.87749e-09
3.57292e-09
6.90322e-09
6.08611e-09
2.5653e-09
4.76998e-09
1.02811e-08
1.10834e-08
4.8797e-09
-2.28885e-09
-6.78508e-09
-7.92176e-09
-8.00268e-09
-8.08462e-09
-5.20204e-09
-1.08302e-09
1.3064e-09
4.49774e-09
8.0927e-09
5.48607e-09
-6.1718e-10
-4.78008e-09
-5.00819e-09
4.51598e-10
2.67037e-09
9.63981e-09
1.44995e-08
6.48859e-09
-1.05144e-08
-1.67353e-08
-8.53636e-09
1.64741e-09
1.16745e-08
1.83199e-08
4.48582e-09
-1.57902e-08
-1.476e-08
-4.25471e-09
3.45035e-09
6.97804e-09
3.39179e-09
-1.12243e-09
1.68983e-09
6.96371e-09
7.94093e-09
4.30187e-09
-3.45438e-09
-1.36853e-08
-1.64352e-08
-9.48069e-09
-2.81511e-09
-4.06817e-10
-7.99612e-11
-2.34896e-10
1.65751e-10
3.37221e-09
6.55869e-09
-9.64967e-10
-4.77946e-09
-1.81986e-09
-2.16596e-11
-1.12503e-09
-2.61857e-09
-1.30307e-09
-5.88783e-09
-1.92198e-09
-5.4094e-10
-8.17475e-10
1.97751e-11
1.21541e-09
1.70008e-10
-1.50852e-09
-2.96439e-10
5.1555e-09
1.84566e-08
3.69108e-08
4.96112e-08
5.07385e-08
3.0477e-08
-1.49186e-08
-5.86417e-08
-6.49747e-08
-3.80472e-08
-1.21993e-08
-2.15183e-09
-2.47932e-09
-4.2243e-09
-1.77566e-09
8.47671e-10
7.08263e-10
-1.79932e-09
-2.25703e-09
-7.96375e-10
6.62282e-11
7.91415e-10
2.71041e-09
5.97285e-09
5.45329e-09
1.69561e-10
-1.60298e-09
5.18939e-10
9.9915e-10
-3.15754e-09
-7.52042e-09
8.58576e-09
5.49613e-09
6.74431e-09
1.54775e-08
3.19215e-08
5.23129e-08
6.76726e-08
7.24913e-08
7.20548e-08
7.85931e-08
1.03987e-07
1.567e-07
2.44918e-07
3.72206e-07
5.33532e-07
7.13099e-07
9.01146e-07
1.09097e-06
1.22679e-06
1.1234e-06
6.54749e-07
2.04122e-07
8.89725e-08
1.12687e-07
1.51026e-07
1.94457e-07
2.36246e-07
2.89212e-07
4.02364e-07
6.13672e-07
9.04436e-07
1.14038e-06
1.10162e-06
7.21632e-07
2.32671e-07
-6.47662e-08
-8.47907e-08
-2.59422e-08
-1.73227e-10
7.71617e-09
5.08008e-08
1.02062e-07
1.75237e-07
2.99213e-07
5.19157e-07
8.40471e-07
1.17977e-06
1.46638e-06
1.62827e-06
1.57992e-06
1.45659e-06
1.59931e-06
2.24019e-06
3.38168e-06
4.8436e-06
6.20927e-06
7.34468e-06
9.02315e-06
1.19184e-05
1.44494e-05
1.15946e-05
2.34096e-06
-2.52044e-06
-7.07024e-07
2.37721e-06
4.89226e-06
5.82188e-06
5.22361e-06
4.7597e-06
5.72712e-06
8.27057e-06
1.15382e-05
1.35208e-05
1.22389e-05
7.91064e-06
2.32393e-06
-1.58956e-06
-1.57537e-06
-5.68254e-07
-9.3638e-08
-4.75245e-07
-9.63854e-08
-3.2557e-07
-7.06727e-07
-1.05162e-06
-1.34378e-06
-1.51798e-06
-1.37304e-06
-1.21301e-06
-1.7415e-06
-3.13184e-06
-4.50132e-06
-5.37159e-06
-6.40507e-06
-8.55638e-06
-1.24356e-05
-1.7519e-05
-2.16452e-05
-2.29283e-05
-2.06073e-05
-1.56921e-05
-1.57269e-05
-1.99211e-05
-1.35389e-05
-5.24733e-06
-1.83831e-06
-3.70645e-06
-9.49648e-06
-1.55686e-05
-1.9353e-05
-2.10959e-05
-2.18421e-05
-2.13149e-05
-1.88281e-05
-1.43522e-05
-8.96149e-06
-8.11022e-06
-9.76696e-06
-5.89969e-06
-2.03247e-06
-8.3509e-07
-1.68115e-07
-2.98523e-07
-5.72699e-07
-6.99797e-07
-7.63807e-07
-8.36546e-07
-9.22675e-07
-1.07427e-06
-1.48433e-06
-2.11093e-06
-2.62952e-06
-2.70612e-06
-2.70174e-06
-3.2311e-06
-4.58901e-06
-6.32378e-06
-7.25645e-06
-6.96819e-06
-6.24894e-06
-5.94113e-06
-7.96706e-06
-1.21647e-05
-9.14613e-06
-3.76056e-06
-1.93647e-06
-2.76063e-06
-5.54763e-06
-8.24815e-06
-9.29141e-06
-9.05994e-06
-8.73508e-06
-8.8735e-06
-9.52417e-06
-1.06505e-05
-1.1713e-05
-1.1411e-05
-1.07004e-05
-8.73476e-06
-3.75906e-06
-1.28693e-06
-1.23435e-07
3.12404e-08
-7.03322e-08
-1.53486e-07
-1.69006e-07
-1.38262e-07
-7.93044e-08
5.08257e-08
1.66218e-07
5.53193e-09
-3.49554e-07
-5.62266e-07
-5.93624e-07
-7.47744e-07
-1.1299e-06
-1.46221e-06
-1.37557e-06
-9.05116e-07
-4.45137e-07
1.15797e-07
3.58349e-07
-2.57541e-06
-4.1268e-06
-1.52513e-06
-2.53201e-07
1.08618e-07
-2.17733e-07
-9.52007e-07
-1.47564e-06
-1.46513e-06
-1.12792e-06
-7.52075e-07
-4.694e-07
-4.43432e-07
-1.02031e-06
-2.70743e-06
-5.23516e-06
-7.25129e-06
-5.41438e-06
-2.82383e-06
-3.12048e-07
6.43555e-08
9.17617e-08
1.6564e-08
-2.74717e-08
-5.40679e-09
3.98474e-08
1.24487e-07
3.62115e-07
5.84323e-07
5.06082e-07
2.11702e-07
-1.34984e-07
-4.73613e-07
-6.38763e-07
-5.27431e-07
-3.17696e-07
-1.40993e-07
-2.81009e-08
5.92227e-08
3.49844e-07
8.42182e-08
-1.26021e-06
-6.29902e-07
-5.31125e-08
9.27355e-08
1.93843e-07
2.22664e-07
1.66963e-07
1.28124e-07
1.83668e-07
3.4749e-07
6.54327e-07
1.11752e-06
1.70659e-06
1.95114e-06
6.62385e-07
-2.75417e-06
-6.2313e-06
-4.92907e-06
-9.28747e-07
-2.15422e-08
8.3028e-08
5.49048e-08
-8.16734e-10
9.23424e-10
2.29254e-08
2.7593e-08
5.19741e-08
1.79903e-07
3.68881e-07
3.68646e-07
2.92136e-08
-4.12095e-07
-4.91767e-07
-2.63707e-07
-9.15283e-08
-1.35999e-08
-1.72305e-09
-5.88205e-08
-4.81889e-08
8.01993e-09
-2.25466e-07
-1.68167e-07
-3.2403e-08
-2.99133e-08
3.66628e-09
2.42456e-08
2.9355e-08
2.77452e-08
2.5141e-08
4.42533e-08
1.48062e-07
4.06144e-07
7.99573e-07
1.35826e-06
1.95053e-06
1.23525e-06
-3.38581e-06
-4.43703e-06
-2.2402e-06
-1.6316e-07
2.72394e-08
4.08496e-08
1.05799e-08
-5.81205e-10
1.06696e-08
1.91796e-08
2.21834e-08
-5.90481e-09
2.26983e-08
1.45796e-07
1.40523e-07
-1.09971e-07
-2.20254e-07
-1.27207e-07
-3.11233e-08
3.22206e-08
2.31418e-09
-8.68753e-08
-7.14182e-08
-2.2745e-08
-7.26254e-08
-3.78794e-08
-6.79869e-09
4.45009e-09
2.93339e-08
2.78228e-08
-4.11841e-09
-5.5555e-08
-1.2583e-07
-1.83876e-07
-1.59188e-07
-2.68498e-08
1.53952e-07
4.16524e-07
9.08267e-07
1.79148e-06
6.96169e-07
-1.07164e-06
-3.16285e-06
-5.09952e-07
-9.20456e-09
9.5838e-09
7.61214e-09
9.10769e-09
1.25202e-08
1.00289e-08
2.4752e-08
6.24826e-08
-1.00719e-09
-3.626e-08
-1.346e-08
-3.52742e-08
-3.16588e-08
-1.28537e-08
6.25944e-09
3.48914e-08
2.27305e-09
-6.98043e-08
-4.44366e-08
-2.0327e-08