/*--------------------------------*- C++ -*----------------------------------*\
| =========                 |                                                 |
| \\      /  F ield         | OpenFOAM: The Open Source CFD Toolbox           |
|  \\    /   O peration     | Version:  5.0                                   |
|   \\  /    A nd           | Web:      www.OpenFOAM.org                      |
|    \\/     M anipulation  |                                                 |
\*---------------------------------------------------------------------------*/
FoamFile
{
    version     2.0;
    format      ascii;
    class       volVectorField;
    location    "50.4676134421789371";
    object      SGSDiff;
}
// * * * * * * * * * * * * * * * * * * * * * * * * * * * * * * * * * * * * * //

dimensions      [0 3 -3 0 0 0 0];

internalField   nonuniform List<vector> 
60000
(
(1.05566e-10 -6.21737e-11 6.61896e-10)
(-3.15981e-10 1.31596e-10 5.42288e-10)
(-4.91022e-10 2.18212e-10 2.7468e-10)
(-3.38481e-10 1.5669e-10 3.44671e-11)
(-1.25937e-10 6.26026e-11 -7.43514e-11)
(-9.15537e-12 4.16066e-12 -1.05504e-10)
(4.25655e-11 -2.7682e-11 -1.17049e-10)
(9.73972e-11 -5.38021e-11 -9.44987e-11)
(2.10384e-10 -9.95311e-11 -1.28507e-11)
(3.70258e-10 -1.76798e-10 1.53631e-10)
(4.5074e-10 -2.27546e-10 3.52369e-10)
(3.17513e-10 -1.73275e-10 4.03533e-10)
(1.64007e-10 -9.51835e-11 2.66229e-10)
(1.70143e-10 -8.14661e-11 1.0173e-10)
(2.02446e-10 -8.04539e-11 -3.8609e-11)
(1.67853e-10 -5.78903e-11 -1.99555e-10)
(1.36876e-10 -6.69496e-11 -4.09949e-10)
(2.6995e-10 -1.80369e-10 -6.88336e-10)
(7.56684e-10 -4.86993e-10 -1.12333e-09)
(1.74499e-09 -1.00326e-09 -1.45522e-09)
(3.21428e-09 -1.64682e-09 -1.18743e-09)
(4.91434e-09 -2.32409e-09 -2.7922e-10)
(6.55184e-09 -3.05043e-09 9.51816e-10)
(8.73365e-09 -4.176e-09 2.22826e-09)
(1.28819e-08 -6.30502e-09 3.07407e-09)
(1.90834e-08 -9.33498e-09 3.50394e-09)
(2.41293e-08 -1.171e-08 4.07659e-09)
(2.23345e-08 -1.07951e-08 4.93047e-09)
(1.34734e-08 -6.49745e-09 4.34307e-09)
(5.94766e-09 -2.77869e-09 1.52484e-09)
(4.02586e-09 -1.75396e-09 -1.12904e-09)
(4.30771e-09 -1.88898e-09 -2.31614e-09)
(4.62943e-09 -2.11658e-09 -2.84469e-09)
(3.91017e-09 -1.88869e-09 -3.32217e-09)
(1.51644e-09 -8.95376e-10 -3.40043e-09)
(-3.42591e-10 -4.80729e-11 -2.15671e-09)
(-5.02068e-11 -2.49798e-11 -4.94168e-10)
(4.35442e-10 -1.65942e-10 2.64488e-10)
(5.36555e-10 -2.23373e-10 5.03959e-10)
(4.29583e-10 -1.97748e-10 6.25096e-10)
(5.27814e-08 -1.89477e-08 6.25066e-08)
(4.95788e-09 2.29715e-09 3.90638e-08)
(-2.8208e-08 1.47889e-08 1.05362e-08)
(-3.05763e-08 1.36036e-08 -6.79616e-09)
(-1.59944e-08 6.69812e-09 -1.51471e-08)
(-2.26347e-09 1.04437e-09 -1.68785e-08)
(5.17427e-09 -2.68406e-09 -1.31005e-08)
(1.11476e-08 -5.32302e-09 -4.32081e-09)
(2.41382e-08 -1.09209e-08 1.11668e-08)
(4.63997e-08 -2.12958e-08 3.2632e-08)
(6.935e-08 -3.24676e-08 5.33718e-08)
(6.76019e-08 -3.14383e-08 5.38762e-08)
(4.06948e-08 -1.91997e-08 2.72735e-08)
(2.43335e-08 -1.14846e-08 -2.68865e-09)
(2.76145e-08 -1.1819e-08 -2.21862e-08)
(3.81316e-08 -1.68863e-08 -3.74016e-08)
(5.40066e-08 -2.70613e-08 -5.35125e-08)
(8.14168e-08 -4.38817e-08 -7.09814e-08)
(1.17015e-07 -6.161e-08 -9.2362e-08)
(1.5569e-07 -7.58144e-08 -9.47495e-08)
(2.05837e-07 -9.19677e-08 -4.04926e-08)
(2.88665e-07 -1.24811e-07 6.39159e-08)
(4.14165e-07 -1.92126e-07 1.66061e-07)
(6.33276e-07 -3.20771e-07 2.25584e-07)
(1.0085e-06 -5.25976e-07 2.24681e-07)
(1.51173e-06 -7.80791e-07 1.78738e-07)
(1.93739e-06 -9.715e-07 1.39364e-07)
(1.94938e-06 -9.4197e-07 1.47904e-07)
(1.41285e-06 -6.56291e-07 1.53845e-07)
(7.29876e-07 -3.28104e-07 6.71024e-08)
(4.07053e-07 -1.81529e-07 -7.35379e-08)
(3.89255e-07 -1.73655e-07 -1.66543e-07)
(4.43857e-07 -1.97919e-07 -2.04919e-07)
(4.57082e-07 -2.04754e-07 -2.22916e-07)
(3.2306e-07 -1.44855e-07 -2.19606e-07)
(8.20268e-08 -4.1711e-08 -1.50963e-07)
(-1.08212e-08 -1.59061e-10 -3.66058e-08)
(3.23663e-08 -1.27071e-08 3.36881e-08)
(6.63466e-08 -2.50535e-08 5.84926e-08)
(7.49922e-08 -2.88775e-08 6.74889e-08)
(3.09604e-07 -9.75064e-08 2.40951e-07)
(1.9099e-07 -4.4675e-08 1.73872e-07)
(5.43744e-08 -4.88028e-09 4.5522e-08)
(-2.7932e-08 7.01981e-09 -4.20636e-08)
(-6.04338e-08 1.40773e-08 -7.45825e-08)
(-4.12534e-08 1.56215e-08 -9.77622e-08)
(1.8645e-09 7.13535e-10 -8.24991e-08)
(3.26332e-08 -1.42142e-08 -3.29507e-08)
(7.51148e-08 -3.42657e-08 3.95552e-08)
(1.44912e-07 -5.99378e-08 1.24051e-07)
(2.30838e-07 -9.7407e-08 1.97561e-07)
(2.61002e-07 -1.07838e-07 2.10879e-07)
(1.91738e-07 -7.77704e-08 1.3398e-07)
(1.01699e-07 -4.58923e-08 6.00454e-09)
(1.06043e-07 -5.06993e-08 -8.79883e-08)
(1.75787e-07 -8.69551e-08 -1.4428e-07)
(2.6015e-07 -1.39628e-07 -1.99548e-07)
(3.12929e-07 -1.79301e-07 -2.39002e-07)
(2.90573e-07 -1.50012e-07 -2.62668e-07)
(2.41274e-07 -8.12606e-08 -2.17567e-07)
(2.38461e-07 -5.34453e-08 -3.84332e-08)
(3.53274e-07 -1.08574e-07 2.53192e-07)
(5.5388e-07 -2.43216e-07 4.95951e-07)
(8.42916e-07 -4.68267e-07 5.52944e-07)
(1.25365e-06 -7.4296e-07 4.37886e-07)
(1.70768e-06 -9.90567e-07 2.30433e-07)
(2.02583e-06 -1.09701e-06 5.12793e-08)
(2.03889e-06 -1.00724e-06 -2.0449e-08)
(1.65855e-06 -7.37391e-07 -4.42867e-09)
(1.02033e-06 -4.09309e-07 -4.59762e-09)
(5.59104e-07 -2.25376e-07 -1.04573e-07)
(5.14662e-07 -2.30238e-07 -2.48329e-07)
(6.45131e-07 -2.80258e-07 -3.41631e-07)
(7.41582e-07 -3.07933e-07 -3.77462e-07)
(6.87044e-07 -2.70241e-07 -3.87556e-07)
(3.87922e-07 -1.45933e-07 -3.36731e-07)
(2.5129e-08 -2.19154e-08 -1.66965e-07)
(3.88285e-08 -3.51349e-08 4.64544e-08)
(2.29587e-07 -9.39224e-08 1.75238e-07)
(3.20105e-07 -1.13044e-07 2.33521e-07)
(1.34525e-07 -1.25649e-08 1.55583e-07)
(7.40921e-08 1.58917e-08 1.29343e-07)
(-7.59237e-09 2.74256e-08 4.39244e-08)
(-5.57529e-08 1.78375e-08 -4.10679e-08)
(-9.84022e-08 2.17507e-08 -7.58514e-08)
(-1.27722e-07 4.37768e-08 -1.04898e-07)
(-8.73179e-08 4.08472e-08 -1.12568e-07)
(-2.62983e-08 1.67235e-08 -5.76746e-08)
(1.37747e-08 -6.35141e-09 1.20026e-08)
(4.547e-08 -1.35366e-08 6.5312e-08)
(6.56335e-08 -1.54522e-08 8.87172e-08)
(6.92675e-08 -1.54494e-08 9.49739e-08)
(3.25596e-08 -6.45696e-10 7.00067e-08)
(-2.88636e-08 1.64765e-08 9.22975e-10)
(-1.65372e-08 2.87936e-09 -6.11551e-08)
(5.96582e-08 -3.57716e-08 -9.44632e-08)
(1.25718e-07 -7.54162e-08 -1.2413e-07)
(1.28213e-07 -8.54551e-08 -1.47631e-07)
(3.05727e-08 -1.91636e-08 -1.57334e-07)
(-6.61083e-08 7.46164e-08 -1.19766e-07)
(-5.73615e-08 8.53939e-08 -8.12228e-09)
(2.45758e-08 2.93166e-08 1.46278e-07)
(1.27569e-07 -4.42324e-08 2.77146e-07)
(2.21427e-07 -1.39994e-07 2.89281e-07)
(3.14917e-07 -2.32175e-07 2.02048e-07)
(3.8512e-07 -2.77416e-07 7.34623e-08)
(3.90817e-07 -2.43271e-07 -2.9783e-08)
(3.34531e-07 -1.58696e-07 -7.78276e-08)
(2.09414e-07 -5.10673e-08 -8.74073e-08)
(-8.5409e-09 6.80386e-08 -8.13922e-08)
(-2.10671e-07 1.38001e-07 -8.72551e-08)
(-2.06833e-07 1.03696e-07 -1.17583e-07)
(-5.27447e-08 3.09434e-08 -1.50937e-07)
(6.59352e-08 -4.4717e-09 -1.71094e-07)
(9.43727e-08 -4.79636e-10 -1.79029e-07)
(1.07697e-09 3.91378e-08 -1.66637e-07)
(-1.79509e-07 8.77609e-08 -1.11744e-07)
(-1.901e-07 6.11793e-08 -1.54626e-08)
(4.56518e-09 -1.35333e-08 7.3311e-08)
(1.25605e-07 -3.48234e-08 1.29431e-07)
(8.1996e-08 7.45495e-09 1.22279e-07)
(4.77645e-08 4.0186e-08 1.25921e-07)
(-2.51522e-08 4.61164e-08 6.54039e-08)
(-8.39221e-08 3.48572e-08 -1.64562e-08)
(-1.28598e-07 3.47217e-08 -6.0769e-08)
(-1.82149e-07 6.1839e-08 -8.44782e-08)
(-1.82497e-07 7.70736e-08 -1.16263e-07)
(-1.12429e-07 5.76233e-08 -9.30101e-08)
(-4.02378e-08 1.91082e-08 -1.82465e-08)
(5.49612e-09 -6.65529e-10 4.00503e-08)
(2.54405e-08 2.3949e-09 5.67715e-08)
(2.42092e-08 5.72653e-09 4.97583e-08)
(8.26841e-09 9.65926e-09 3.93643e-08)
(-3.21458e-08 2.01983e-08 8.59687e-09)
(-3.99621e-08 1.35754e-08 -3.91104e-08)
(2.25907e-08 -2.12601e-08 -7.42625e-08)
(9.19412e-08 -6.37812e-08 -1.06265e-07)
(9.57195e-08 -7.29554e-08 -1.28432e-07)
(-4.31741e-08 1.26496e-08 -1.3003e-07)
(-2.11634e-07 1.47737e-07 -1.06531e-07)
(-1.71588e-07 1.4884e-07 -1.52353e-08)
(-4.63797e-08 5.77401e-08 8.76699e-08)
(3.96644e-08 -4.40621e-09 1.67356e-07)
(9.34632e-08 -5.96087e-08 1.76024e-07)
(1.11733e-07 -9.58697e-08 1.06712e-07)
(9.74552e-08 -8.99634e-08 2.99655e-08)
(7.04786e-08 -5.63948e-08 -1.05807e-08)
(4.97588e-08 -2.22643e-08 -2.31781e-08)
(2.75336e-08 9.24681e-09 -2.91151e-08)
(-3.37399e-08 5.1975e-08 -3.81187e-08)
(-1.67476e-07 1.10685e-07 -4.90255e-08)
(-2.77477e-07 1.3995e-07 -5.8287e-08)
(-2.52375e-07 1.1637e-07 -6.94714e-08)
(-1.53038e-07 8.0653e-08 -8.72184e-08)
(-7.61284e-08 6.58241e-08 -1.07374e-07)
(-7.14215e-08 7.12323e-08 -1.12053e-07)
(-1.67415e-07 9.37688e-08 -9.51615e-08)
(-2.49954e-07 9.36157e-08 -5.5059e-08)
(-1.35476e-07 3.20505e-08 6.53573e-09)
(2.78092e-08 -1.13425e-08 7.40677e-08)
(4.98293e-08 -4.23109e-09 7.54714e-08)
(5.89823e-08 3.233e-08 1.10602e-07)
(1.98179e-08 3.93721e-08 8.55355e-08)
(-3.02541e-08 2.19879e-08 2.07594e-08)
(-7.49945e-08 1.55534e-08 -3.04268e-08)
(-1.41443e-07 4.25369e-08 -5.67733e-08)
(-2.02543e-07 7.94246e-08 -9.4558e-08)
(-1.96666e-07 9.09101e-08 -1.22587e-07)
(-1.2937e-07 6.09231e-08 -6.68784e-08)
(-4.73054e-08 1.8111e-08 1.95001e-08)
(3.61951e-09 6.0985e-09 4.99328e-08)
(1.1555e-08 9.68238e-09 3.53535e-08)
(5.65463e-09 7.46071e-09 1.97887e-08)
(-3.96322e-09 7.18585e-09 9.90082e-09)
(-1.16438e-08 3.47067e-09 -1.62731e-08)
(2.79348e-08 -2.67266e-08 -6.1708e-08)
(1.05231e-07 -8.15012e-08 -1.11742e-07)
(1.23412e-07 -9.72411e-08 -1.22117e-07)
(-1.57291e-08 -9.65399e-09 -9.25663e-08)
(-2.76674e-07 1.69574e-07 -7.9047e-08)
(-3.04892e-07 2.24719e-07 -2.25492e-08)
(-9.49675e-08 8.79345e-08 6.48027e-08)
(1.43743e-08 5.09621e-09 1.06403e-07)
(4.97083e-08 -2.73695e-08 1.07453e-07)
(3.38691e-08 -2.93226e-08 4.23481e-08)
(1.19538e-08 -1.45175e-08 5.18524e-09)
(6.49793e-09 -8.57888e-09 -1.11351e-09)
(6.92635e-09 -3.51247e-09 -2.41308e-09)
(7.84877e-09 3.05925e-09 -2.72066e-09)
(6.57847e-09 8.72147e-09 -4.05221e-09)
(-8.03648e-09 1.95503e-08 -9.4416e-09)
(-6.54222e-08 4.39927e-08 -1.80706e-08)
(-1.50283e-07 7.34435e-08 -2.23762e-08)
(-1.99002e-07 9.31096e-08 -2.86502e-08)
(-1.70799e-07 9.15992e-08 -5.21039e-08)
(-1.05448e-07 7.58912e-08 -7.61077e-08)
(-9.04624e-08 6.48444e-08 -7.84615e-08)
(-1.38962e-07 5.9589e-08 -6.76191e-08)
(-1.44506e-07 3.41749e-08 -4.49569e-08)
(-3.99464e-08 -6.42867e-09 8.65985e-09)
(-1.68996e-09 -7.84861e-09 1.54301e-08)
(3.67467e-08 1.46169e-08 6.60565e-08)
(3.23029e-08 2.92136e-08 7.06211e-08)
(1.20131e-08 1.26902e-08 3.61646e-08)
(-8.18601e-09 -2.17467e-09 1.41237e-09)
(-4.12816e-08 5.77617e-09 -1.97293e-08)
(-1.04994e-07 3.67978e-08 -4.61505e-08)
(-1.68134e-07 7.06971e-08 -9.57404e-08)
(-2.00607e-07 8.87526e-08 -1.03611e-07)
(-1.62557e-07 6.61783e-08 -1.91828e-08)
(-5.95975e-08 2.87526e-08 5.18055e-08)
(-3.53823e-09 1.378e-08 3.7831e-08)
(1.20807e-09 7.3595e-09 1.35673e-08)
(2.33241e-10 3.82092e-09 6.23228e-09)
(3.14892e-09 -1.83794e-09 -7.556e-09)
(4.25474e-08 -3.81415e-08 -6.46043e-08)
(1.25234e-07 -1.06239e-07 -1.34278e-07)
(1.30373e-07 -1.07898e-07 -1.11357e-07)
(2.27857e-08 -2.70053e-08 -4.40992e-08)
(-2.20428e-07 1.30667e-07 -1.76307e-08)
(-4.06013e-07 2.65014e-07 -5.73851e-09)
(-1.79721e-07 1.37688e-07 5.73578e-08)
(-4.57344e-09 1.11073e-08 6.87327e-08)
(1.59848e-08 -6.51891e-09 4.72093e-08)
(5.52809e-09 -3.42493e-09 1.20057e-08)
(2.49987e-09 -6.7214e-09 1.47117e-09)
(4.36595e-09 -8.27752e-09 -2.43362e-09)
(6.52723e-09 -1.86468e-09 -1.89634e-09)
(6.89418e-09 3.78956e-09 -6.1313e-10)
(7.00209e-09 6.1153e-09 2.75014e-10)
(6.19315e-09 4.92437e-09 5.37958e-10)
(5.55886e-09 4.119e-09 -5.83826e-10)
(-1.20274e-08 1.33873e-08 -2.42714e-09)
(-8.70198e-08 4.72629e-08 -1.93677e-09)
(-1.79181e-07 8.94224e-08 -1.14325e-08)
(-1.72923e-07 9.22569e-08 -4.02093e-08)
(-1.01968e-07 6.33573e-08 -5.86335e-08)
(-7.16338e-08 3.96445e-08 -5.82932e-08)
(-8.08157e-08 2.30842e-08 -5.64801e-08)
(-6.4259e-08 1.20948e-09 -4.1338e-08)
(-3.21234e-08 -3.1565e-09 -3.10788e-08)
(-2.9296e-09 6.38601e-09 2.00574e-08)
(1.27843e-08 1.65327e-08 3.88342e-08)
(1.19105e-08 8.29062e-09 2.53089e-08)
(8.87217e-09 -2.84232e-09 9.15447e-09)
(5.95093e-09 -5.34684e-09 1.08219e-09)
(-7.07577e-09 7.50368e-10 -7.7054e-09)
(-4.46066e-08 1.6561e-08 -3.59526e-08)
(-1.23539e-07 5.0723e-08 -7.77812e-08)
(-2.30316e-07 9.46284e-08 -5.28668e-08)
(-2.09282e-07 8.97637e-08 3.39286e-08)
(-6.68264e-08 4.37554e-08 5.53048e-08)
(-7.20871e-09 1.3541e-08 2.00605e-08)
(4.39675e-10 7.06518e-09 9.48311e-09)
(1.90192e-08 -6.46952e-09 -1.70716e-08)
(8.59901e-08 -6.91069e-08 -1.0487e-07)
(1.40667e-07 -1.24767e-07 -1.49858e-07)
(1.01845e-07 -9.09233e-08 -8.34869e-08)
(3.0657e-08 -2.37933e-08 -1.44956e-08)
(-9.59124e-08 6.59391e-08 1.73622e-08)
(-3.34404e-07 2.09254e-07 2.46019e-08)
(-2.72428e-07 1.8101e-07 5.64816e-08)
(-3.20061e-08 2.35856e-08 5.61362e-08)
(1.78762e-09 -6.52154e-11 1.71135e-08)
(1.38472e-09 -5.01179e-09 1.15671e-08)
(1.5498e-09 -1.71649e-08 1.83227e-09)
(7.39698e-09 -1.14696e-08 -1.9066e-09)
(8.99977e-09 -1.4157e-09 -4.48348e-10)
(7.62773e-09 3.56192e-09 1.70406e-10)
(7.32119e-09 5.14008e-09 8.9377e-10)
(8.14541e-09 5.16737e-09 1.94073e-09)
(7.28539e-09 3.49568e-09 2.19849e-09)
(5.98597e-09 1.50148e-09 1.63192e-09)
(-1.18953e-09 6.89487e-09 2.25779e-09)
(-6.00793e-08 3.67987e-08 2.12453e-09)
(-1.44669e-07 7.43898e-08 -1.24694e-08)
(-1.35953e-07 6.94508e-08 -3.66421e-08)
(-7.41611e-08 3.94552e-08 -4.58768e-08)
(-4.52387e-08 1.89526e-08 -4.84826e-08)
(-4.39984e-08 6.01374e-09 -5.40307e-08)
(-3.16408e-08 3.16155e-09 -4.48423e-08)
(-3.0771e-08 5.62796e-09 -1.3802e-08)
(-1.48719e-08 1.11483e-08 1.51036e-08)
(-1.54786e-09 4.83434e-09 1.51581e-08)
(6.08922e-09 -3.32384e-09 7.85882e-09)
(9.6732e-09 -4.92801e-09 4.24879e-09)
(1.04235e-08 -4.35784e-09 1.82934e-09)
(9.68141e-09 -4.86432e-09 -5.41847e-09)
(-9.80757e-09 2.52296e-09 -2.48365e-08)
(-1.11136e-07 4.7194e-08 -3.81049e-08)
(-2.76833e-07 1.17265e-07 3.09091e-09)
(-2.22646e-07 1.11729e-07 4.99786e-08)
(-4.91078e-08 4.16972e-08 2.87587e-08)
(9.25943e-11 1.03685e-08 6.52793e-09)
(4.25698e-08 -1.71122e-08 -3.76069e-08)
(1.09645e-07 -8.36341e-08 -1.1524e-07)
(1.02061e-07 -9.48837e-08 -1.01655e-07)
(4.70654e-08 -4.85464e-08 -3.86102e-08)
(1.42452e-08 -1.09663e-08 -4.42591e-09)
(-1.95347e-08 2.33956e-08 1.25222e-08)
(-1.47313e-07 1.02524e-07 2.7672e-08)
(-2.62904e-07 1.64148e-07 4.95987e-08)
(-7.9213e-08 4.42376e-08 5.31476e-08)
(-3.46207e-09 3.82844e-10 9.90084e-09)
(-2.85203e-09 -8.39987e-09 5.27678e-09)
(8.00921e-10 -1.72776e-08 9.41872e-10)
(8.09052e-09 -8.32897e-09 1.74179e-09)
(9.45342e-09 -5.49229e-10 2.19427e-09)
(8.27963e-09 2.93795e-09 8.83322e-10)
(8.03735e-09 3.81297e-09 1.13848e-09)
(8.82128e-09 3.71169e-09 2.84447e-09)
(8.40732e-09 3.51328e-09 3.84925e-09)
(5.40961e-09 2.61463e-09 2.89153e-09)
(2.48337e-09 1.31083e-09 1.28786e-09)
(-1.73787e-09 4.7582e-09 1.33394e-09)
(-3.58343e-08 2.3006e-08 -1.61641e-09)
(-8.26584e-08 4.23431e-08 -1.49555e-08)
(-7.56539e-08 3.62647e-08 -2.74985e-08)
(-4.27169e-08 1.99297e-08 -3.40437e-08)
(-2.80235e-08 9.72765e-09 -4.36595e-08)
(-1.99276e-08 5.92569e-09 -3.23843e-08)
(-3.42445e-08 6.16254e-09 -2.56091e-08)
(-3.22625e-08 7.7633e-09 1.59927e-10)
(-9.94722e-09 1.18549e-09 1.53553e-08)
(7.41701e-09 -7.8051e-09 1.28656e-08)
(1.0525e-08 -7.86192e-09 4.8966e-09)
(7.78585e-09 -4.29634e-09 2.06452e-10)
(6.7813e-09 -3.39623e-09 -2.03854e-09)
(6.43782e-09 -3.67e-09 -4.91369e-09)
(-8.71963e-09 4.74643e-09 -9.07332e-09)
(-1.22794e-07 5.64507e-08 -3.13991e-09)
(-2.85095e-07 1.33005e-07 2.53287e-08)
(-1.42441e-07 8.79461e-08 1.71748e-08)
(-5.47343e-09 1.44002e-08 -5.8534e-09)
(3.22804e-08 -1.56886e-08 -3.30091e-08)
(5.27132e-08 -4.21018e-08 -5.54361e-08)
(3.10148e-08 -3.35071e-08 -3.25069e-08)
(9.74697e-09 -1.33554e-08 -9.42028e-09)
(2.90576e-09 -2.94037e-09 -1.35604e-09)
(-1.28441e-09 7.50645e-09 3.68347e-09)
(-3.24624e-08 3.48101e-08 1.21638e-08)
(-1.37937e-07 9.37693e-08 2.73592e-08)
(-1.08182e-07 5.3751e-08 3.59052e-08)
(-1.48837e-08 -3.06656e-10 8.99867e-09)
(-2.77178e-09 -5.97288e-09 6.89076e-11)
(1.40151e-09 -7.56591e-09 1.02194e-09)
(6.95759e-09 -4.26311e-09 4.72353e-09)
(1.01463e-08 -2.35318e-10 4.53467e-09)
(9.95569e-09 2.5512e-09 8.80038e-10)
(1.05508e-08 3.22073e-09 1.00192e-09)
(1.22671e-08 3.34144e-09 4.68121e-09)
(1.14695e-08 3.49564e-09 7.13854e-09)
(6.92475e-09 3.05631e-09 5.55782e-09)
(2.17771e-09 1.70379e-09 1.99262e-09)
(3.70624e-10 6.7171e-10 2.85131e-10)
(-1.57671e-09 2.28317e-09 -3.83385e-11)
(-1.33264e-08 8.42743e-09 -2.65855e-09)
(-2.77019e-08 1.38064e-08 -8.51407e-09)
(-2.65788e-08 1.26025e-08 -1.44674e-08)
(-1.79487e-08 8.79113e-09 -2.29733e-08)
(-7.69215e-09 4.22827e-09 -1.4212e-08)
(-2.09989e-08 4.94798e-09 -1.96097e-08)
(-2.794e-08 3.16623e-09 -4.48407e-09)
(-4.11208e-09 -6.08499e-09 2.09347e-08)
(1.3287e-08 -1.38194e-08 2.28228e-08)
(9.04038e-09 -9.02418e-09 7.28838e-09)
(3.24132e-09 -2.67746e-09 -2.06797e-09)
(2.00055e-09 -1.23402e-09 -3.03011e-09)
(1.43419e-09 -1.03207e-09 -1.8758e-09)
(8.54558e-10 -3.21893e-10 -1.09353e-09)
(-1.39037e-08 8.51675e-09 -1.54648e-11)
(-1.34393e-07 6.456e-08 1.19379e-08)
(-1.85368e-07 9.66281e-08 8.06456e-09)
(-2.6913e-08 2.37714e-08 -1.18995e-08)
(1.04332e-08 -5.06098e-09 -1.31097e-08)
(1.17634e-08 -9.77157e-09 -1.59638e-08)
(7.13107e-09 -8.76229e-09 -1.03925e-08)
(2.08098e-09 -3.70496e-09 -2.97571e-09)
(4.2848e-10 -6.78001e-10 -3.53845e-10)
(1.90937e-10 1.78038e-09 4.06074e-10)
(-3.63419e-09 1.11011e-08 2.70993e-09)
(-3.85539e-08 3.73421e-08 7.66984e-09)
(-7.71343e-08 3.83552e-08 1.10472e-08)
(-2.94822e-08 -9.48216e-10 4.31634e-09)
(-1.43464e-09 -4.1358e-09 -9.9857e-11)
(2.32105e-09 -3.09749e-09 1.90353e-09)
(7.41902e-09 -3.88052e-09 7.61381e-09)
(1.02984e-08 -3.81816e-10 5.73061e-09)
(9.85245e-09 1.99199e-09 -3.09341e-10)
(1.11693e-08 2.28786e-09 -3.39243e-12)
(1.47163e-08 2.87882e-09 6.35733e-09)
(1.6009e-08 4.16486e-09 1.23563e-08)
(1.12111e-08 4.32799e-09 1.15577e-08)
(3.87093e-09 2.56648e-09 5.01199e-09)
(4.12395e-10 7.15466e-10 6.89335e-10)
(-7.0631e-11 3.64618e-10 4.18943e-11)
(-1.4348e-09 1.14454e-09 -2.73203e-10)
(-4.14679e-09 2.24951e-09 -1.26784e-09)
(-5.94644e-09 3.15964e-09 -3.03136e-09)
(-5.60948e-09 3.70052e-09 -6.76457e-09)
(-2.01654e-09 2.52191e-09 -5.38131e-09)
(-7.73275e-09 3.38957e-09 -1.04774e-08)
(-1.24139e-08 -4.02795e-10 -2.82244e-09)
(3.1027e-09 -1.03534e-08 1.92039e-08)
(1.00953e-08 -1.20687e-08 2.00417e-08)
(2.1616e-09 -4.44168e-09 6.16774e-09)
(-1.21269e-09 -3.75281e-10 -1.03678e-09)
(-5.33362e-11 -2.09281e-10 -2.06173e-09)
(3.31433e-10 -2.50708e-10 -9.6479e-10)
(1.19778e-10 -3.09379e-11 -2.84522e-10)
(-3.29141e-10 4.71329e-10 -2.51398e-11)
(-2.699e-08 1.44865e-08 4.8127e-09)
(-1.11072e-07 5.47955e-08 8.71482e-09)
(-5.10118e-08 2.85368e-08 -8.33799e-09)
(3.29243e-09 -9.44327e-10 -6.77258e-09)
(5.77861e-09 -3.39549e-09 -8.67835e-09)
(7.94904e-09 -6.17985e-09 -9.67673e-09)
(4.45839e-09 -4.69412e-09 -1.85115e-09)
(1.10699e-09 -1.57537e-09 5.09144e-10)
(2.82728e-10 9.24451e-10 -5.76065e-10)
(-2.84914e-10 3.4426e-09 -4.54822e-10)
(-8.83172e-09 1.67519e-08 2.05607e-10)
(-3.50659e-08 2.16055e-08 -9.53867e-10)
(-2.85448e-08 -1.29297e-09 -9.81334e-10)
(-2.61107e-09 -8.76008e-09 2.93537e-09)
(4.71645e-09 -7.08069e-09 7.39718e-09)
(6.39196e-09 -4.03633e-09 9.56207e-09)
(6.79927e-09 -1.24845e-10 4.14704e-09)
(6.78751e-09 1.23401e-09 -2.36484e-09)
(8.46816e-09 8.09759e-10 -2.11154e-09)
(1.25273e-08 1.13747e-09 4.75112e-09)
(1.70094e-08 3.53479e-09 1.43041e-08)
(1.64629e-08 6.28005e-09 1.9244e-08)
(7.84586e-09 4.97503e-09 1.19344e-08)
(1.02779e-09 1.52669e-09 2.57742e-09)
(-1.56153e-10 3.05869e-10 2.18028e-10)
(-1.00677e-09 6.88489e-10 -3.97886e-11)
(-1.99717e-09 1.13269e-09 -5.77327e-10)
(-1.97921e-09 1.3561e-09 -1.19807e-09)
(-1.50503e-09 1.73521e-09 -2.34843e-09)
(-1.14811e-09 3.02264e-09 -4.45625e-09)
(-1.91586e-09 3.26566e-09 -6.56782e-09)
(-1.53538e-09 -1.01088e-09 -1.6051e-09)
(3.09332e-09 -6.69523e-09 8.34529e-09)
(2.04865e-09 -5.00162e-09 7.78644e-09)
(-2.90679e-09 -9.73489e-10 3.0866e-09)
(-4.73339e-09 6.34108e-10 5.59939e-10)
(-1.87769e-09 2.20155e-10 -1.04155e-09)
(1.98227e-10 -1.36066e-10 -1.14786e-09)
(3.0376e-10 1.28995e-12 -7.21126e-10)
(2.72347e-11 2.33571e-10 -1.50955e-10)
(-6.16841e-09 4.39608e-09 2.15144e-09)
(-4.89926e-08 2.58083e-08 8.11553e-09)
(-5.12411e-08 2.44637e-08 -2.74871e-09)
(-3.09015e-09 1.21465e-09 -6.43234e-09)
(4.18937e-09 -2.1936e-09 -7.24182e-09)
(1.02195e-08 -6.9272e-09 -7.15525e-09)
(8.66745e-09 -8.996e-09 7.47287e-09)
(4.19924e-09 -4.89077e-09 5.41491e-09)
(1.38222e-09 1.17146e-09 -3.4705e-09)
(-6.87001e-10 3.41591e-09 -3.12906e-09)
(-4.87956e-09 1.119e-08 -3.42173e-09)
(-1.64031e-08 1.70036e-08 -4.63364e-09)
(-1.56101e-08 -1.88828e-09 -1.73906e-09)
(-2.63387e-09 -1.032e-08 5.46316e-09)
(3.19931e-10 -5.07045e-09 7.20444e-09)
(4.1894e-10 -1.66617e-09 5.78098e-09)
(2.13004e-09 1.97374e-10 9.93983e-10)
(3.60267e-09 4.04354e-10 -3.98573e-09)
(4.70932e-09 -5.46845e-10 -4.07299e-09)
(6.67861e-09 -1.01456e-09 2.75335e-10)
(1.10752e-08 5.97669e-10 8.48795e-09)
(1.72181e-08 5.88514e-09 2.09485e-08)
(1.43279e-08 9.14932e-09 2.29365e-08)
(3.60531e-09 4.32949e-09 8.75239e-09)
(-1.66989e-10 7.11293e-10 9.93479e-10)
(-1.19072e-09 8.66203e-10 4.47082e-11)
(-2.54494e-09 1.49089e-09 -8.34674e-10)
(-2.41221e-09 1.58125e-09 -1.51791e-09)
(-1.64008e-09 2.05675e-09 -2.52191e-09)
(-1.97343e-09 4.14779e-09 -5.28983e-09)
(-6.57842e-10 4.45659e-09 -6.52544e-09)
(6.95624e-10 2.80671e-10 -2.32829e-09)
(5.88643e-10 -1.54555e-09 8.28166e-10)
(-5.24522e-10 -6.42899e-10 7.54083e-10)
(-3.87349e-09 -2.16441e-10 1.52127e-09)
(-6.82149e-09 5.379e-10 2.57222e-09)
(-4.02277e-09 4.922e-10 1.16863e-09)
(-1.88515e-10 -7.91534e-11 -8.80985e-10)
(6.53212e-10 -1.52974e-11 -1.34113e-09)
(2.98032e-10 4.41949e-10 -7.82847e-10)
(-2.47325e-09 3.33927e-09 5.37255e-10)
(-2.48342e-08 1.64533e-08 4.84486e-09)
(-4.18746e-08 1.98182e-08 6.70522e-10)
(-1.03266e-08 2.89363e-09 -5.15466e-09)
(1.13176e-09 -1.6042e-09 -4.85134e-09)
(7.62105e-09 -6.72156e-09 2.09767e-09)
(1.02544e-08 -1.06921e-08 1.9326e-08)
(7.99914e-09 -7.02048e-09 1.02448e-08)
(3.4714e-09 -4.02954e-10 -5.79917e-09)
(-2.17146e-09 5.0898e-09 -1.14286e-08)
(-7.52215e-09 1.0426e-08 -1.02078e-08)
(-8.82787e-09 1.09574e-08 -6.30022e-09)
(-5.41467e-09 -1.95679e-10 -9.2951e-10)
(-3.42689e-09 -2.93194e-09 1.56069e-09)
(-4.15116e-09 -1.84829e-09 3.01398e-09)
(-2.86872e-09 -8.77034e-10 3.3661e-09)
(9.07715e-10 -3.08239e-12 -2.91733e-10)
(2.58719e-09 -2.63925e-10 -3.83067e-09)
(2.45374e-09 -9.36001e-10 -3.89407e-09)
(2.18739e-09 -1.33816e-09 -2.13828e-09)
(3.36335e-09 -1.28885e-09 4.97844e-10)
(9.54918e-09 2.21387e-09 1.06819e-08)
(1.71111e-08 1.10276e-08 2.76818e-08)
(9.79671e-09 1.0222e-08 2.19962e-08)
(7.85568e-10 2.32147e-09 4.57664e-09)
(-5.36844e-10 4.60065e-10 3.80712e-10)
(-1.75275e-09 1.01619e-09 -7.27883e-10)
(-2.39165e-09 1.43801e-09 -1.81983e-09)
(-2.43833e-09 2.34988e-09 -3.04191e-09)
(-2.4987e-09 3.92586e-09 -5.13918e-09)
(-1.61758e-09 4.68691e-09 -6.03428e-09)
(-3.60761e-10 1.50724e-09 -3.02069e-09)
(-3.27418e-10 -2.35348e-10 -2.98577e-10)
(-2.25797e-10 -5.87907e-11 3.84255e-11)
(-1.278e-09 -2.05796e-10 3.38548e-10)
(-2.57406e-09 4.20177e-11 1.23355e-09)
(-2.40461e-09 2.73654e-10 1.59879e-09)
(-6.45606e-10 -1.57814e-10 4.14256e-10)
(6.29017e-10 -2.98359e-10 -1.1019e-09)
(3.20844e-10 3.00804e-10 -1.08399e-09)
(-1.06579e-09 2.08748e-09 -7.17701e-10)
(-1.2049e-08 1.04435e-08 -7.56886e-11)
(-2.98213e-08 1.53442e-08 -6.36745e-10)
(-1.44851e-08 4.06566e-09 -2.65717e-09)
(-1.1246e-09 -9.28184e-10 -6.45076e-10)
(4.33891e-09 -4.7636e-09 5.94851e-09)
(6.96361e-09 -7.39412e-09 1.12252e-08)
(5.28122e-09 -4.84995e-09 5.6143e-09)
(2.71311e-09 -1.42311e-09 -2.74127e-09)
(-2.39061e-09 3.25635e-09 -1.34482e-08)
(-1.32607e-08 1.13774e-08 -2.20551e-08)
(-1.77556e-08 1.15236e-08 -1.49435e-08)
(-1.18773e-08 2.63674e-09 -3.86711e-09)
(-6.32606e-09 -9.31921e-10 8.2413e-10)
(-3.51366e-09 -9.49313e-10 3.41544e-09)
(-4.50517e-10 -1.27872e-09 4.56791e-09)
(2.50945e-09 -1.52263e-09 8.76115e-10)
(2.88908e-09 -1.14487e-09 -3.05847e-09)
(2.0853e-09 -8.69114e-10 -3.33433e-09)
(1.46693e-09 -9.48179e-10 -2.30567e-09)
(1.30859e-09 -1.14782e-09 -1.75821e-09)
(3.23162e-09 -1.40646e-10 1.02091e-09)
(1.11633e-08 7.4585e-09 1.69455e-08)
(1.46609e-08 1.50026e-08 3.10782e-08)
(4.51121e-09 7.29211e-09 1.5041e-08)
(-1.50549e-10 7.66249e-10 1.64892e-09)
(-7.60209e-10 3.27342e-10 -9.00268e-11)
(-1.46901e-09 7.60428e-10 -1.54754e-09)
(-1.92935e-09 1.76381e-09 -3.11351e-09)
(-2.56536e-09 2.95263e-09 -4.69506e-09)
(-3.18587e-09 4.2453e-09 -4.39596e-09)
(-2.59703e-09 2.12113e-09 -2.20578e-09)
(-1.80722e-09 5.05103e-11 -4.96568e-10)
(-1.08693e-09 -3.05823e-10 -1.03841e-10)
(-6.15973e-10 -2.55371e-10 -7.14719e-11)
(-2.57871e-10 -8.96306e-11 -1.73719e-11)
(-1.77847e-10 3.33423e-11 1.47761e-10)
(-2.01951e-10 1.98124e-11 4.26801e-10)
(6.29825e-12 -2.05706e-10 -3.15601e-10)
(-2.48642e-10 1.25948e-10 -1.21832e-09)
(-1.52967e-09 1.24379e-09 -1.28812e-09)
(-8.23502e-09 6.78209e-09 -2.23512e-09)
(-2.06815e-08 1.23302e-08 -2.48003e-09)
(-1.22605e-08 4.17723e-09 -1.13462e-09)
(-2.09823e-10 -1.07702e-09 7.62386e-10)
(2.36229e-09 -3.35598e-09 2.30675e-09)
(3.53236e-09 -5.39983e-09 3.05738e-09)
(3.01619e-09 -3.4595e-09 2.03835e-09)
(1.66923e-09 -6.07441e-10 -4.63927e-10)
(-5.68101e-10 2.16817e-09 -6.9239e-09)
(-6.50423e-09 7.37403e-09 -1.76126e-08)
(-1.70954e-08 1.19435e-08 -2.18692e-08)
(-2.03344e-08 7.61444e-09 -1.03894e-08)
(-1.27713e-08 -9.96434e-11 5.52543e-09)
(-3.60532e-09 -7.33625e-09 1.76341e-08)
(1.93949e-09 -1.07246e-08 1.73066e-08)
(6.23574e-10 -5.50301e-09 5.10657e-09)
(-5.43538e-10 -1.14405e-09 -3.04041e-09)
(2.67229e-10 -7.41444e-10 -3.75187e-09)
(1.0058e-09 -1.06754e-09 -2.68034e-09)
(1.38675e-09 -1.04385e-09 -2.1774e-09)
(1.68673e-09 -4.71846e-10 -1.51099e-09)
(4.40385e-09 2.86301e-09 4.54434e-09)
(1.11159e-08 1.21567e-08 2.24341e-08)
(9.38288e-09 1.31571e-08 2.44745e-08)
(1.63879e-09 3.48566e-09 7.03282e-09)
(-1.15416e-10 1.82335e-10 4.89003e-10)
(-6.34544e-10 1.13877e-10 -8.39967e-10)
(-1.37993e-09 8.65118e-10 -3.03441e-09)
(-1.627e-09 1.3854e-09 -3.29085e-09)
(-2.79438e-09 2.78239e-09 -2.66589e-09)
(-3.45064e-09 1.88803e-09 -8.97987e-10)
(-3.76873e-09 1.39007e-11 -1.53134e-10)
(-3.58229e-09 -1.0393e-09 -2.00627e-10)
(-2.2991e-09 -1.05896e-09 -2.79757e-10)
(-5.43647e-10 -3.2421e-10 -1.34136e-10)
(-5.24652e-12 1.54263e-12 -5.33663e-12)
(1.8698e-11 4.18271e-11 8.11375e-11)
(-7.54104e-11 3.7478e-11 4.30207e-11)
(-1.11927e-09 1.72392e-10 -1.14281e-09)
(-3.95809e-09 1.32466e-09 -2.28752e-09)
(-9.8218e-09 5.16794e-09 -3.19916e-09)
(-1.56169e-08 9.6996e-09 -2.95205e-09)
(-8.1686e-09 3.4055e-09 -6.79649e-10)
(8.5393e-10 -3.44905e-09 9.93219e-10)
(2.42073e-09 -5.33692e-09 1.38302e-09)
(2.55566e-09 -4.71461e-09 1.44829e-09)
(2.20429e-09 -2.19116e-09 1.52183e-09)
(1.01985e-09 2.01396e-10 7.12732e-11)
(-1.05538e-09 3.24724e-09 -5.88018e-09)
(-2.52903e-09 6.65586e-09 -1.37446e-08)
(-2.66268e-09 7.25841e-09 -1.46522e-08)
(1.88795e-09 8.37732e-10 -5.00396e-09)
(1.19618e-08 -1.22413e-08 1.03683e-08)
(1.57599e-08 -2.19361e-08 2.03938e-08)
(-1.47443e-09 -1.27779e-08 1.67031e-08)
(-2.32032e-08 2.78933e-09 8.91794e-09)
(-2.491e-08 6.01229e-09 3.24101e-09)
(-1.21618e-08 1.76214e-09 -8.54628e-10)
(-2.9438e-09 -6.65716e-10 -2.18124e-09)
(2.55211e-10 -1.03025e-09 -2.27757e-09)
(1.19026e-09 -5.00065e-10 -1.65589e-09)
(1.11863e-09 3.74255e-10 5.92544e-11)
(3.78408e-09 4.67428e-09 7.80987e-09)
(9.15458e-09 1.27703e-08 2.14653e-08)
(6.64426e-09 9.78828e-09 1.63268e-08)
(1.35365e-09 1.70162e-09 3.4516e-09)
(8.03298e-11 -1.48376e-10 -7.82621e-11)
(-4.40668e-10 -1.38626e-11 -1.59794e-09)
(-5.99588e-10 1.82508e-10 -9.925e-10)
(-1.29125e-09 6.214e-10 -9.62048e-10)
(-2.54869e-09 1.89737e-10 -1.59871e-10)
(-5.80677e-09 -1.24785e-09 7.48209e-10)
(-1.06361e-08 -3.51171e-09 1.36684e-09)
(-7.94596e-09 -3.44087e-09 4.90161e-10)
(-1.01582e-09 -6.21279e-10 -4.87024e-10)
(3.55592e-10 3.06985e-10 -3.20578e-10)
(6.40071e-11 1.14583e-10 -6.62489e-11)
(2.14862e-11 1.62278e-10 6.72707e-11)
(-1.12067e-09 4.10315e-10 -3.59249e-10)
(-5.11784e-09 1.34948e-09 -1.60601e-09)
(-1.05808e-08 3.61511e-09 -2.60901e-09)
(-1.12644e-08 5.15731e-09 -2.19592e-09)
(-4.17214e-09 6.46907e-10 -5.31059e-10)
(1.15405e-09 -3.92117e-09 3.12788e-10)
(1.5892e-09 -3.57642e-09 5.05403e-10)
(2.92031e-09 -3.30497e-09 1.77483e-09)
(3.65743e-09 -1.88749e-09 4.01118e-09)
(1.36915e-09 1.09165e-09 2.19003e-09)
(-1.62742e-09 4.74348e-09 -4.696e-09)
(-1.60365e-09 7.82258e-09 -1.23393e-08)
(3.22e-09 6.0857e-09 -1.17895e-08)
(8.01542e-09 -1.64219e-09 -1.85041e-09)
(5.76119e-09 -5.26155e-09 3.86107e-09)
(7.52746e-10 -1.82017e-09 1.71212e-09)
(-4.3205e-09 -7.19552e-10 2.96219e-09)
(-1.93252e-08 -2.77168e-10 6.35333e-09)
(-1.70492e-08 -5.13595e-10 3.7639e-09)
(-4.39965e-09 -8.02378e-10 2.92382e-10)
(-7.35831e-10 -2.65562e-09 -1.82685e-09)
(-2.10757e-09 -3.22118e-09 -6.63524e-09)
(-4.96504e-09 1.73905e-09 -8.84332e-09)
(-1.13448e-09 2.28204e-09 -2.66017e-09)
(4.74772e-10 5.44005e-10 1.0362e-09)
(3.41159e-09 4.17708e-09 8.26275e-09)
(1.00726e-08 1.14197e-08 1.96666e-08)
(9.10589e-09 8.54534e-09 1.41869e-08)
(2.9622e-09 1.49522e-09 2.92587e-09)
(4.37637e-11 -2.00965e-10 -6.14925e-10)
(5.95598e-10 3.82248e-10 3.53769e-10)
(-1.0022e-09 -2.68278e-10 6.4562e-11)
(-5.96178e-09 -1.01595e-09 1.49228e-09)
(-1.73796e-08 -2.95729e-09 5.18888e-09)
(-1.62837e-08 -4.98333e-09 4.8824e-09)
(-3.38255e-09 -3.49647e-09 3.96239e-10)
(1.29333e-09 -9.70298e-10 -1.37288e-09)
(1.40854e-09 5.19232e-10 -1.7341e-09)
(5.88894e-10 1.41226e-09 -1.01726e-09)
(-7.61542e-11 4.94003e-10 -7.94094e-11)
(-6.66148e-10 3.78087e-10 5.99658e-11)
(-4.73715e-09 9.57766e-10 -2.75768e-10)
(-9.52891e-09 1.98361e-09 -1.32228e-09)
(-7.07903e-09 1.91936e-09 -1.43312e-09)
(-1.22695e-09 7.6608e-12 -5.69633e-10)
(5.54362e-10 -8.74894e-10 -9.02341e-11)
(2.77536e-09 -2.65226e-09 8.15725e-10)
(6.30954e-09 -4.02277e-09 5.82572e-09)
(5.28276e-09 -2.30352e-09 8.36479e-09)
(1.56907e-09 2.61469e-10 4.26662e-09)
(-7.9911e-10 2.08864e-09 -1.7827e-10)
(-7.52575e-10 2.93848e-09 -2.73839e-09)
(1.01631e-09 2.05197e-09 -2.87467e-09)