/*--------------------------------*- C++ -*----------------------------------*\
| =========                 |                                                 |
| \\      /  F ield         | OpenFOAM: The Open Source CFD Toolbox           |
|  \\    /   O peration     | Version:  5.0                                   |
|   \\  /    A nd           | Web:      www.OpenFOAM.org                      |
|    \\/     M anipulation  |                                                 |
\*---------------------------------------------------------------------------*/
FoamFile
{
    version     2.0;
    format      ascii;
    class       volScalarField;
    location    "50.4676134421789371";
    object      T;
}
// * * * * * * * * * * * * * * * * * * * * * * * * * * * * * * * * * * * * * //

dimensions      [0 0 0 1 0 0 0];

internalField   nonuniform List<scalar> 
60000
(
453.693
452.467
449.662
446.035
443.708
443.806
444.857
445.968
447.961
450.706
452.833
453.53
452.953
451.971
451.381
451.128
451.084
451.588
452.922
455.134
457.964
461.005
463.57
465.324
466.587
467.683
468.491
468.322
466.521
463.583
461.338
461.064
462.143
462.885
461.373
457.225
453.176
452.05
452.969
453.739
348.466
347.796
344.298
339.024
334.833
333.37
333.384
333.766
335.602
339.786
344.294
346.735
346.534
344.935
343.715
343.317
343.156
343.167
343.917
346.352
350.696
356.493
362.521
367.403
370.975
373.917
376.302
376.788
373.731
367.764
362.365
360.533
362.191
364.615
363.384
356.552
348.35
344.338
345.081
347.179
299.421
300.57
299.794
297.389
295.212
293.977
292.797
291.323
290.299
290.962
293.137
295.4
296.571
296.703
296.72
297.154
297.411
296.474
294.315
292.605
293.385
297.043
302.469
307.922
312.196
315.463
318.145
319.497
317.863
313.268
308.37
305.748
306.165
308.627
309.712
306.558
301.289
297.577
296.743
297.761
288.444
289.324
289.759
289.431
289.175
289.308
289.099
287.934
286.162
284.669
283.808
283.716
284.373
285.509
286.959
288.695
290.056
289.822
287.086
282.543
279.232
279.529
282.986
287.843
292.353
295.681
298.002
299.322
298.505
295.249
291.52
289.358
289.336
291.112
292.794
292.103
289.891
288.331
287.959
288.009
291.124
291.238
291.503
291.601
291.754
292.201
292.642
292.503
291.589
290.408
289.156
287.859
287.184
287.709
289.195
291.226
293.137
293.957
292.476
288.028
282.788
280.483
282.261
286.593
291.216
294.506
296.397
297.659
297.65
295.293
291.97
289.862
289.625
290.943
292.559
292.595
291.362
290.664
290.943
291.208
295.082
295.001
295.006
294.976
294.944
295.114
295.478
295.735
295.572
295.143
294.616
293.813
292.94
292.68
293.3
294.551
296.002
297.221
297.143
294.22
289.258
285.89
286.487
290.091
294.101
296.605
297.461
297.891
298.578
298.216
296.25
294.276
293.522
294.043
295.195
295.687
295.064
294.449
294.617
295.024
297.157
297.151
297.156
297.14
297.049
296.989
297.074
297.254
297.317
297.233
297.083
296.791
296.371
296.102
296.196
296.63
297.258
298.162
298.876
297.592
293.888
290.68
290.795
293.614
296.339
297.666
298.052
297.966
298.018
298.359
298.199
297.389
296.644
296.482
296.856
297.261
297.208
296.893
296.841
297.038
297.88
297.898
297.924
297.956
297.944
297.886
297.845
297.881
297.93
297.933
297.886
297.748
297.552
297.437
297.473
297.605
297.723
298.061
298.835
298.699
296.43
294.014
294.055
295.901
297.372
297.934
298.108
298.177
298.122
298.117
298.211
298.189
297.979
297.762
297.726
297.824
297.888
297.841
297.795
297.829
298.085
298.092
298.104
298.122
298.133
298.126
298.107
298.1
298.11
298.119
298.111
298.041
297.927
297.872
297.917
297.996
297.976
297.966
298.376
298.663
297.605
296.15
296.135
297.105
297.81
298.071
298.127
298.145
298.161
298.145
298.143
298.162
298.169
298.129
298.078
298.061
298.075
298.083
298.078
298.076
298.136
298.135
298.138
298.143
298.146
298.149
298.148
298.147
298.147
298.15
298.156
298.13
298.073
298.043
298.07
298.121
298.12
298.06
298.155
298.373
298.039
297.352
297.294
297.715
298.015
298.121
298.146
298.148
298.148
298.151
298.148
298.149
298.149
298.153
298.149
298.14
298.135
298.137
298.14
298.137
298.148
298.148
298.149
298.15
298.15
298.15
298.15
298.149
298.149
298.152
298.153
298.149
298.127
298.116
298.124
298.143
298.154
298.138
298.135
298.206
298.147
297.907
297.857
297.999
298.106
298.14
298.146
298.15
298.15
298.15
298.15
298.15
298.15
298.15
298.15
298.15
298.15
298.149
298.15
298.149
298.15
298.15
298.15
298.15
298.15
298.15
298.15
298.15
298.15
298.15
298.151
298.152
298.144
298.142
298.144
298.147
298.152
298.151
298.146
298.158
298.156
298.1
298.075
298.108
298.138
298.147
298.15
298.15
298.15
298.15
298.15
298.15
298.15
298.15
298.15
298.15
298.15
298.15
298.15
298.15
298.15
298.15
298.15
298.15
298.15
298.15
298.15
298.15
298.15
298.15
298.15
298.151
298.148
298.149
298.15
298.15
298.15
298.149
298.149
298.149
298.154
298.143
298.137
298.142
298.147
298.15
298.15
298.15
298.15
298.15
298.15
298.15
298.15
298.15
298.15
298.15
298.15
298.15
298.15
298.15
298.15
298.15
298.15
298.15
298.15
298.15
298.15
298.15
298.15
298.15
298.15
298.15
298.15
298.15
298.15
298.15
298.15
298.15
298.15
298.15
298.15
298.15
298.15
298.15
298.15
298.15
298.15
298.15
298.15
298.15
298.15
298.15
298.15
298.15
298.15
298.15
298.15
298.15
298.15
298.15
298.15
298.15
298.15
298.15
298.15
298.15
298.15
298.15
298.15
298.15
298.15
298.15
298.15
298.15
298.15
298.15
298.15
298.15
298.15
298.15
298.15
298.15
298.15
298.15
298.15
298.15
298.15
298.15
298.15
298.15
298.15
298.15
298.15
298.15
298.15
298.15
298.15
298.15
298.15
298.15
298.15
298.15
298.15
298.15
298.15
298.15
298.15
298.15
298.15
298.15
298.15
298.15
298.15
298.15
298.15
298.15
298.15
298.15
298.15
298.15
298.15
298.15
298.15
298.15
298.15
298.15
298.15
298.15
298.15
298.15
298.15
298.15
298.15
298.15
298.15
298.15
298.15
298.15
298.15
298.15
298.15
298.15
298.15
298.15
298.15
298.15
298.15
298.15
298.15
298.15
298.15
298.15
298.15
298.15
298.15
298.15
298.15
298.15
298.15
298.15
298.15
298.15
298.15
298.15
298.15
298.15
298.15
298.15
298.15
298.15
298.15
298.15
298.15
298.15
298.15
298.15
298.15
298.15
298.15
298.15
298.15
298.15
298.15
298.15
298.15
298.15
298.15
298.15
298.15
298.15
298.15
298.15
298.15
298.15
298.15
298.15
298.15
298.15
298.15
298.15
298.15
298.15
298.15
298.15
298.15
298.15
298.15
298.15
298.15
298.15
298.15
298.15
298.15
298.15
298.15
298.15
298.15
298.15
298.15
298.15
298.15
298.15
298.15
298.15
298.15
298.15
298.15
298.15
298.15
298.15
298.15
298.15
298.15
298.15
298.15
298.15
298.15
298.15
298.15
298.15
298.15
298.15
298.15
298.15
298.15
298.15
298.15
298.15
298.15
298.15
298.15
298.15
298.15
298.15
298.15
298.15
298.15
298.15
298.15
298.15
298.15
298.15
298.15
298.15
298.15
298.15
298.15
298.15
298.15
298.15
298.15
298.15
298.15
298.15
298.15
298.15
298.15
298.15
298.15
298.15
298.15
298.15
298.15
298.15
298.15
298.15
298.15
298.15
298.15
298.15
298.15
298.15
298.15
298.15
298.15
298.15
298.15
298.15
298.15
298.15
298.15
298.15
298.15
298.15
298.15
298.15
298.15
298.15
298.15
298.15
298.15
298.15
298.15
298.15
298.15
298.15
298.15
298.15
298.15
298.15
298.15
298.15
298.15
298.15
298.15
298.15
298.15
298.15
298.15
298.15
298.15
298.15
298.15
298.15
298.15
298.15
298.15
298.15
298.15
298.15
298.15
298.15
298.15
298.15
298.15
298.15
298.15
298.15
298.15
298.15
298.15
298.15
298.15
298.15
298.15
298.15
298.15
298.15
298.15
298.15
298.15
298.15
298.15
298.15
298.15
298.15
298.15
298.15
298.15
298.15
298.15
298.15
298.15
298.15
298.15
298.15
298.15
298.15
298.15
298.15
298.15
298.15
298.15
298.15
298.15
298.15
298.15
298.15
298.15
298.15
298.15
298.15
298.15
298.15
298.15
298.15
298.15
298.15
298.15
298.15
298.15
298.15
298.15
298.15
298.15
298.15
298.15
298.15
298.15
298.15
298.15
298.15
298.15
298.15
298.15
298.15
298.15
298.15
298.15
298.15
298.15
298.15
298.15
298.15
298.15
298.15
298.15
298.15
298.15
298.15
298.15
298.15
298.15
298.15
298.15
298.15
298.15
298.15
298.15
298.15
298.15
298.15
298.15
298.15
298.15
298.15
298.15
298.15
298.15
298.15
298.15
298.15
298.15
298.15
298.15
298.15
298.15
298.15
298.15
298.15
298.15
298.15
298.15
298.15
298.15
298.15
298.15
298.15
298.15
298.15
298.15
298.15
298.15
298.15
298.15
298.15
298.15
298.15
298.15
298.15
298.15
298.15
298.15
298.15
298.15
298.15
298.15
298.15
298.15
298.15
298.15
298.15
298.15
298.15
298.15
298.15
298.15
298.15
298.15
298.15
444.14
445.677
446.736
448.093
450.174
451.898
452.208
451.356
450.724
451.505
453.255
455.106
456.821
458.544
460.215
461.603
462.636
463.269
463.293
462.39
460.993
460.596
461.956
463.899
465.397
466.385
466.813
466.54
465.767
465.199
465.402
466.049
466.546
466.442
463.918
456.688
447.01
441.535
441.203
442.434
331.537
334.353
336.39
338.548
341.55
344.357
345.173
343.727
341.977
342.183
344.606
347.875
350.997
354.176
357.604
360.869
363.593
365.544
366.219
364.651
361.137
358.577
359.844
364.09
368.545
371.793
373.448
373.28
371.597
369.808
369.466
370.4
371.57
372.401
369.358
357.931
341.743
330.227
326.86
328.417
289.28
291.328
293.022
294.793
296.953
298.819
299.261
297.841
295.794
294.724
295.286
297.131
299.365
301.753
304.448
307.206
309.616
311.529
312.525
311.34
307.579
303.599
302.679
305.638
310.332
314.29
316.516
316.841
315.494
313.527
312.47
312.588
313.242
314.82
314.962
309.448
300.228
292.347
288.17
287.604
285.045
285.716
286.707
288.214
290.274
292.119
292.597
291.132
288.607
286.667
286.056
286.666
288.062
289.909
292.004
294.008
295.532
296.714
297.633
296.891
293.271
288.736
286.636
288.037
291.473
294.789
296.671
296.882
295.775
294.173
293.282
293.371
293.611
294.631
295.865
294.439
290.716
287.555
285.879
285.042
289.848
289.724
290.117
291.223
292.921
294.63
295.542
294.847
292.567
290.181
289.012
289.139
290.101
291.573
293.278
294.866
295.907
296.53
297.436
297.753
295.203
290.672
287.863
288.457
291.19
294.057
295.763
295.983
295.01
293.555
292.662
292.791
293.059
293.566
294.475
293.975
291.948
290.458
290.192
290.139
294.113
293.892
293.95
294.582
295.619
296.67
297.429
297.491
296.326
294.403
293.051
292.867
293.487
294.488
295.636
296.737
297.432
297.545
297.938
298.952
298.328
295.114
292.28
292.236
294.264
296.539
297.95
298.367
298.054
297.234
296.38
296.113
296.111
296.153
296.714
296.701
295.23
293.903
293.783
294.108
296.42
296.346
296.333
296.635
297.141
297.601
297.958
298.174
297.885
296.889
295.809
295.401
295.676
296.27
296.948
297.597
298.021
297.953
297.813
298.493
298.953
297.444
295.366
295.062
296.333
297.668
298.336
298.476
298.42
298.32
298.111
297.943
297.869
297.658
297.753
298.05
297.444
296.396
296.066
296.28
297.455
297.459
297.464
297.595
297.804
297.966
298.069
298.191
298.212
297.879
297.289
296.897
296.923
297.214
297.582
297.914
298.148
298.127
297.937
298.163
298.618
298.06
296.868
296.646
297.331
297.932
298.179
298.223
298.193
298.179
298.175
298.159
298.181
298.117
298.026
298.182
298.147
297.673
297.348
297.368
297.892
297.904
297.918
297.969
298.042
298.092
298.111
298.148
298.199
298.136
297.903
297.672
297.624
297.74
297.906
298.048
298.161
298.178
298.07
298.121
298.358
298.152
297.562
297.455
297.784
298.042
298.132
298.151
298.153
298.148
298.149
298.146
298.153
298.162
298.125
298.143
298.192
298.085
297.925
297.876
298.068
298.067
298.079
298.1
298.121
298.136
298.14
298.141
298.164
298.166
298.096
297.998
297.969
298.012
298.073
298.115
298.151
298.172
298.131
298.128
298.226
298.159
297.904
297.859
297.999
298.102
298.137
298.146
298.15
298.15
298.15
298.149
298.149
298.153
298.15
298.145
298.161
298.155
298.11
298.078
298.13
298.129
298.131
298.138
298.144
298.149
298.149
298.149
298.151
298.158
298.141
298.114
298.103
298.117
298.135
298.143
298.147
298.153
298.148
298.142
298.171
298.156
298.066
298.048
298.097
298.132
298.146
298.15
298.15
298.15
298.15
298.15
298.15
298.15
298.15
298.148
298.149
298.153
298.148
298.139
298.146
298.145
298.144
298.149
298.15
298.15
298.15
298.15
298.151
298.151
298.15
298.145
298.142
298.142
298.147
298.149
298.15
298.151
298.152
298.147
298.154
298.151
298.127
298.122
298.136
298.146
298.15
298.15
298.15
298.15
298.15
298.15
298.15
298.15
298.15
298.15
298.15
298.15
298.15
298.148
298.15
298.15
298.15
298.15
298.15
298.15
298.15
298.15
298.15
298.15
298.15
298.15
298.15
298.15
298.15
298.15
298.15
298.15
298.15
298.15
298.151
298.15
298.145
298.144
298.146
298.15
298.15
298.15
298.15
298.15
298.15
298.15
298.15
298.15
298.15
298.15
298.15
298.15
298.15
298.15
298.15
298.15
298.15
298.15
298.15
298.15
298.15
298.15
298.15
298.15
298.15
298.15
298.15
298.15
298.15
298.15
298.15
298.15
298.15
298.15
298.15
298.15
298.15
298.15
298.15
298.15
298.15
298.15
298.15
298.15
298.15
298.15
298.15
298.15
298.15
298.15
298.15
298.15
298.15
298.15
298.15
298.15
298.15
298.15
298.15
298.15
298.15
298.15
298.15
298.15
298.15
298.15
298.15
298.15
298.15
298.15
298.15
298.15
298.15
298.15
298.15
298.15
298.15
298.15
298.15
298.15
298.15
298.15
298.15
298.15
298.15
298.15
298.15
298.15
298.15
298.15
298.15
298.15
298.15
298.15
298.15
298.15
298.15
298.15
298.15
298.15
298.15
298.15
298.15
298.15
298.15
298.15
298.15
298.15
298.15
298.15
298.15
298.15
298.15
298.15
298.15
298.15
298.15
298.15
298.15
298.15
298.15
298.15
298.15
298.15
298.15
298.15
298.15
298.15
298.15
298.15
298.15
298.15
298.15
298.15
298.15
298.15
298.15
298.15
298.15
298.15
298.15
298.15
298.15
298.15
298.15
298.15
298.15
298.15
298.15
298.15
298.15
298.15
298.15
298.15
298.15
298.15
298.15
298.15
298.15
298.15
298.15
298.15
298.15
298.15
298.15
298.15
298.15
298.15
298.15
298.15
298.15
298.15
298.15
298.15
298.15
298.15
298.15
298.15
298.15
298.15
298.15
298.15
298.15
298.15
298.15
298.15
298.15
298.15
298.15
298.15
298.15
298.15
298.15
298.15
298.15
298.15
298.15
298.15
298.15
298.15
298.15
298.15
298.15
298.15
298.15
298.15
298.15
298.15
298.15
298.15
298.15
298.15
298.15
298.15
298.15
298.15
298.15
298.15
298.15
298.15
298.15
298.15
298.15
298.15
298.15
298.15
298.15
298.15
298.15
298.15
298.15
298.15
298.15
298.15
298.15
298.15
298.15
298.15
298.15
298.15
298.15
298.15
298.15
298.15
298.15
298.15
298.15
298.15
298.15
298.15
298.15
298.15
298.15
298.15
298.15
298.15
298.15
298.15
298.15
298.15
298.15
298.15
298.15
298.15
298.15
298.15
298.15
298.15
298.15
298.15
298.15
298.15
298.15
298.15
298.15
298.15
298.15
298.15
298.15
298.15
298.15
298.15
298.15
298.15
298.15
298.15
298.15
298.15
298.15
298.15
298.15
298.15
298.15
298.15
298.15
298.15
298.15
298.15
298.15
298.15
298.15
298.15
298.15
298.15
298.15
298.15
298.15
298.15
298.15
298.15
298.15
298.15
298.15
298.15
298.15
298.15
298.15
298.15
298.15
298.15
298.15
298.15
298.15
298.15
298.15
298.15
298.15
298.15
298.15
298.15
298.15
298.15
298.15
298.15
298.15
298.15
298.15
298.15
298.15
298.15
298.15
298.15
298.15
298.15
298.15
298.15
298.15
298.15
298.15
298.15
298.15
298.15
298.15
298.15
298.15
298.15
298.15
298.15
298.15
298.15
298.15
298.15
298.15
298.15
298.15
298.15
298.15
298.15
298.15
298.15
298.15
298.15
298.15
298.15
298.15
298.15
298.15
298.15
298.15
298.15
298.15
298.15
298.15
298.15
298.15
298.15
298.15
298.15
298.15
298.15
298.15
298.15
298.15
298.15
298.15
298.15
298.15
298.15
298.15
298.15
298.15
298.15
298.15
298.15
298.15
298.15
298.15
298.15
298.15
298.15
298.15
298.15
298.15
298.15
298.15
298.15
298.15
298.15
298.15
298.15
298.15
298.15
298.15
298.15
298.15
298.15
298.15
298.15
298.15
298.15
298.15
298.15
298.15
298.15
298.15
298.15
298.15
298.15
298.15
298.15
298.15
298.15
298.15
298.15
298.15
298.15
298.15
298.15
298.15
298.15
298.15
298.15
298.15
298.15
298.15
298.15
298.15
298.15
298.15
298.15
298.15
298.15
298.15
298.15
298.15
298.15
298.15
298.15
298.15
298.15
298.15
298.15
298.15
298.15
298.15
298.15
298.15
298.15
298.15
298.15
298.15
298.15
298.15
298.15
298.15
298.15
298.15
298.15
298.15
298.15
298.15
298.15
298.15
298.15
445.695
446.684
447.356
448.76
450.839
452.72
453.883
454.384
454.552
454.926
456.071
458.024
460.327
462.443
464.075
465.237
466.094
466.653
466.602
465.428
462.838
459.494
457.356
457.555
458.85
460.112
461.13
462.006
463.097
464.498
465.758
466.277
465.812
464.463
461.864
457.158
450.924
445.629
443.406
444.077
331.077
333.648
335.301
337.174
340.003
343.099
345.514
346.968
347.715
348.346
349.88
352.961
357.258
361.773
365.623
368.54
370.701
372.194
372.498
370.567
365.742
358.866
353.155
352.131
355.182
358.998
361.835
363.655
365.389
367.702
370.114
371.444
371.044
369.214
365.393
357.879
347.107
336.415
329.541
328.5
285.062
286.745
288.218
289.277
290.59
292.292
293.95
295.275
296.2
296.806
297.622
299.349
302.226
305.794
309.278
312.127
314.172
315.528
315.999
314.649
310.911
305.473
300.291
298.093
300.021
303.836
306.995
308.812
309.993
311.367
312.953
313.989
313.991
313.531
312.377
309.055
303.375
296.412
289.582
285.299
280.157
279.595
280.274
281.124
281.961
282.818
283.576
284.069
284.348
284.522
284.88
285.881
287.712
290.154
292.733
294.976
296.552
297.541
298.15
297.437
294.339
289.845
286.031
284.334
285.008
287.108
289.199
290.561
291.53
292.664
293.971
294.823
294.728
294.491
294.518
293.992
292.554
290.355
287.178
283.077
286.241
284.338
284.232
284.954
285.822
286.632
287.236
287.426
287.241
286.916
286.772
287.249
288.527
290.408
292.487
294.382
295.789
296.595
297.36
297.803
295.868
291.537
287.751
286.331
286.781
287.967
289.117
289.944
290.729
291.818
293.15
294.217
294.315
293.838
293.502
293.171
292.834
292.527
291.654
289.355
292.139
290.243
289.687
290.125
290.828
291.535
292.134
292.447
292.361
291.94
291.463
291.397
292.037
293.292
294.8
296.182
297.242
297.714
297.836
298.539
298.737
296.355
293.036
291.445
291.691
292.583
293.368
293.925
294.492
295.224
296.032
296.772
297.047
296.782
296.362
295.82
295.322
295.176
295.055
294.118
295.59
294.373
293.801
293.962
294.363
294.794
295.219
295.566
295.729
295.61
295.233
294.899
295.007
295.635
296.509
297.267
297.79
298.091
298.024
298.024
298.568
298.279
296.616
295.316
295.228
295.765
296.325
296.753
297.136
297.506
297.782
297.986
298.106
298.049
297.925
297.662
297.225
296.953
296.912
296.565
297.193
296.599
296.241
296.258
296.423
296.618
296.841
297.086
297.288
297.365
297.273
297.072
296.985
297.162
297.505
297.806
297.99
298.115
298.156
298.092
298.206
298.307
297.799
297.146
296.999
297.236
297.531
297.771
297.956
298.088
298.153
298.17
298.185
298.172
298.165
298.153
298.005
297.824
297.774
297.628
297.837
297.598
297.445
297.436
297.49
297.557
297.65
297.769
297.885
297.947
297.948
297.917
297.898
297.932
297.999
298.062
298.103
298.136
298.152
298.137
298.159
298.204
298.056
297.804
297.729
297.821
297.941
298.038
298.104
298.138
298.154
298.153
298.154
298.153
298.151
298.164
298.146
298.097
298.082
298.023
298.063
297.977
297.935
297.938
297.955
297.972
298.002
298.042
298.083
298.107
298.111
298.111
298.122
298.132
298.137
298.14
298.141
298.148
298.152
298.145
298.151
298.166
298.122
298.036
298.009
298.039
298.081
298.114
298.135
298.144
298.149
298.15
298.15
298.15
298.15
298.151
298.151
298.144
298.15
298.134
298.13
298.104
298.097
298.103
298.108
298.111
298.118
298.127
298.137
298.143
298.142
298.144
298.146
298.15
298.15
298.15
298.15
298.15
298.15
298.149
298.149
298.155
298.142
298.116
298.108
298.117
298.132
298.141
298.146
298.15
298.15
298.15
298.15
298.15
298.15
298.151
298.149
298.149
298.153
298.153
298.147
298.139
298.137
298.143
298.144
298.144
298.145
298.148
298.149
298.15
298.15
298.15
298.15
298.15
298.15
298.15
298.15
298.15
298.15
298.15
298.15
298.153
298.148
298.143
298.14
298.143
298.146
298.15
298.15
298.15
298.15
298.15
298.15
298.15
298.15
298.15
298.15
298.15
298.15
298.152
298.149
298.148
298.149
298.15
298.15
298.15
298.15
298.15
298.15
298.15
298.15
298.15
298.15
298.15
298.15
298.15
298.15
298.15
298.15
298.15
298.15
298.15
298.149
298.148
298.149
298.15
298.15
298.15
298.15
298.15
298.15
298.15
298.15
298.15
298.15
298.15
298.15
298.15
298.15
298.15
298.15
298.15
298.15
298.15
298.15
298.15
298.15
298.15
298.15
298.15
298.15
298.15
298.15
298.15
298.15
298.15
298.15
298.15
298.15
298.15
298.15
298.15
298.15
298.15
298.15
298.15
298.15
298.15
298.15
298.15
298.15
298.15
298.15
298.15
298.15
298.15
298.15
298.15
298.15
298.15
298.15
298.15
298.15
298.15
298.15
298.15
298.15
298.15
298.15
298.15
298.15
298.15
298.15
298.15
298.15
298.15
298.15
298.15
298.15
298.15
298.15
298.15
298.15
298.15
298.15
298.15
298.15
298.15
298.15
298.15
298.15
298.15
298.15
298.15
298.15
298.15
298.15
298.15
298.15
298.15
298.15
298.15
298.15
298.15
298.15
298.15
298.15
298.15
298.15
298.15
298.15
298.15
298.15
298.15
298.15
298.15
298.15
298.15
298.15
298.15
298.15
298.15
298.15
298.15
298.15
298.15
298.15
298.15
298.15
298.15
298.15
298.15
298.15
298.15
298.15
298.15
298.15
298.15
298.15
298.15
298.15
298.15
298.15
298.15
298.15
298.15
298.15
298.15
298.15
298.15
298.15
298.15
298.15
298.15
298.15
298.15
298.15
298.15
298.15
298.15
298.15
298.15
298.15
298.15
298.15
298.15
298.15
298.15
298.15
298.15
298.15
298.15
298.15
298.15
298.15
298.15
298.15
298.15
298.15
298.15
298.15
298.15
298.15
298.15
298.15
298.15
298.15
298.15
298.15
298.15
298.15
298.15
298.15
298.15
298.15
298.15
298.15
298.15
298.15
298.15
298.15
298.15
298.15
298.15
298.15
298.15
298.15
298.15
298.15
298.15
298.15
298.15
298.15
298.15
298.15
298.15
298.15
298.15
298.15
298.15
298.15
298.15
298.15
298.15
298.15
298.15
298.15
298.15
298.15
298.15
298.15
298.15
298.15
298.15
298.15
298.15
298.15
298.15
298.15
298.15
298.15
298.15
298.15
298.15
298.15
298.15
298.15
298.15
298.15
298.15
298.15
298.15
298.15
298.15
298.15
298.15
298.15
298.15
298.15
298.15
298.15
298.15
298.15
298.15
298.15
298.15
298.15
298.15
298.15
298.15
298.15
298.15
298.15
298.15
298.15
298.15
298.15
298.15
298.15
298.15
298.15
298.15
298.15
298.15
298.15
298.15
298.15
298.15
298.15
298.15
298.15
298.15
298.15
298.15
298.15
298.15
298.15
298.15
298.15
298.15
298.15
298.15
298.15
298.15
298.15
298.15
298.15
298.15
298.15
298.15
298.15
298.15
298.15
298.15
298.15
298.15
298.15
298.15
298.15
298.15
298.15
298.15
298.15
298.15
298.15
298.15
298.15
298.15
298.15
298.15
298.15
298.15
298.15
298.15
298.15
298.15
298.15
298.15
298.15
298.15
298.15
298.15
298.15
298.15
298.15
298.15
298.15
298.15
298.15
298.15
298.15
298.15
298.15
298.15
298.15
298.15
298.15
298.15
298.15
298.15
298.15
298.15
298.15
298.15
298.15
298.15
298.15
298.15
298.15
298.15
298.15
298.15
298.15
298.15
298.15
298.15
298.15
298.15
298.15
298.15
298.15
298.15
298.15
298.15
298.15
298.15
298.15
298.15
298.15
298.15
298.15
298.15
298.15
298.15
298.15
298.15
298.15
298.15
298.15
298.15
298.15
298.15
298.15
298.15
298.15
298.15
298.15
298.15
298.15
298.15
298.15
298.15
298.15
298.15
298.15
298.15
298.15
298.15
298.15
298.15
298.15
298.15
298.15
298.15
298.15
298.15
298.15
298.15
298.15
298.15
298.15
298.15
298.15
298.15
298.15
298.15
298.15
298.15
298.15
298.15
298.15
298.15
298.15
298.15
298.15
298.15
298.15
298.15
298.15
298.15
298.15
298.15
298.15
298.15
298.15
298.15
298.15
298.15
298.15
298.15
298.15
298.15
298.15
298.15
298.15
298.15
298.15
298.15
298.15
298.15
298.15
298.15
298.15
298.15
298.15
298.15
298.15
298.15
298.15
298.15
298.15
298.15
298.15
298.15
298.15
298.15
298.15
298.15
298.15
298.15
298.15
298.15
298.15
298.15
298.15
298.15
298.15
298.15
298.15
298.15
457.236
457.979
457.581
456.901
456.722
457.029
457.394
457.519
457.351
456.973
456.762
457.296
458.818
460.981
463.199
465.043
466.398
467.294
467.693
467.228
465.563
462.507
458.318
454.708
453.03
452.83
453.644
455.419
457.949
460.556
462.438
463.06
462.371
460.821
458.901
456.771
454.77
453.661
454.007
455.551
350.982
353.737
353.877
352.626
351.848
352.177
353.097
353.808
353.815
352.995
351.945
351.893
353.895
357.922
362.858
367.406
370.911
373.3
374.673
374.284
371.274
365.209
356.48
348.226
344.121
344.202
346.219
349.196
353.347
358.168
362.292
364.398
364.096
362.122
359.202
355.249
350.584
346.617
345.138
347.129
295.255
297.821
298.762
297.957
297.01
297.118
298.379
300.047
301.183
301.087
299.813
298.374
298.236
300.359
304.361
308.876
312.69
315.243
316.913
317.263
315.241
310.416
303.381
296.461
292.434
292.382
294.348
296.545
299.11
302.182
305.193
307.323
308.2
308.251
307.687
305.996
303.02
299.25
295.538
293.808
282.522
282.289
282.56
281.968
280.977
280.723
281.813
283.922
286.16
287.476
287.193
285.69
284.345
284.577
286.775
290.137
293.444
295.621
297.037
297.841
296.756
293.008
287.654
282.997
280.31
279.85
280.99
282.654
284.671
286.891
288.756
289.862
290.332
290.823
291.51
291.813
291.338
290.11
287.891
284.791
287.69
285.781
284.924
283.94
282.561
281.668
282.105
283.863
286.301
288.431
289.252
288.503
287.166
286.706
287.871
290.301
293.088
294.999
296.044
297.153
297.349
294.447
289.131
284.799
282.823
282.362
282.846
284.1
286.04
288.29
290.144
291.089
291.068
290.824
291.013
291.479
291.863
292.059
291.729
290.258
294.056
292.843
291.918
290.718
289.024
287.617
287.362
288.353
290.146
292.089
293.356
293.349
292.477
291.937
292.518
293.992
295.756
297.079
297.488
297.722
298.771
298.649
294.942
290.525
288.429
288.042
288.288
289.104
290.607
292.433
294.005
295.012
295.267
294.921
294.536
294.434
294.584
294.928
295.195
295.021
296.917
296.688
296.425
295.725
294.399
293.041
292.468
292.878
293.921
295.183
296.227
296.524
296.074
295.615
295.773
296.425
297.167
297.773
298.07
297.911
297.96
298.753
298.042
295.292
293.261
292.743
292.899
293.417
294.346
295.457
296.387
297.019
297.345
297.339
297.104
296.843
296.714
296.818
296.999
297.068
297.777
297.81
297.901
297.742
297.122
296.301
295.836
295.976
296.496
297.101
297.625
297.871
297.713
297.414
297.344
297.533
297.793
297.985
298.117
298.158
298.05
298.218
298.351
297.411
296.194
295.7
295.771
296.108
296.608
297.125
297.517
297.774
297.929
297.995
297.972
297.879
297.775
297.761
297.802
297.815
298.039
298.047
298.126
298.152
297.984
297.669
297.452
297.473
297.654
297.866
298.033
298.132
298.126
298.021
297.943
297.961
298.035
298.099
298.132
298.152
298.136
298.149
298.227
297.992
297.499
297.22
297.244
297.43
297.662
297.858
297.983
298.053
298.093
298.118
298.127
298.116
298.093
298.085
298.089
298.074
298.125
298.119
298.138
298.159
298.14
298.064
297.993
297.988
298.039
298.095
298.127
298.146
298.156
298.141
298.115
298.105
298.117
298.136
298.144
298.151
298.147
298.147
298.174
298.123
297.965
297.857
297.869
297.945
298.032
298.091
298.125
298.139
298.144
298.146
298.148
298.148
298.145
298.145
298.148
298.143
298.146
298.143
298.146
298.152
298.15
298.141
298.127
298.125
298.134
298.145
298.149
298.15
298.152
298.152
298.145
298.144
298.144
298.149
298.15
298.15
298.149
298.148
298.156
298.147
298.103
298.076
298.081
298.107
298.129
298.145
298.15
298.15
298.15
298.15
298.15
298.15
298.15
298.15
298.151
298.149
298.149
298.149
298.15
298.15
298.15
298.149
298.148
298.149
298.15
298.15
298.15
298.15
298.15
298.15
298.15
298.15
298.15
298.15
298.15
298.15
298.15
298.15
298.151
298.151
298.141
298.136
298.139
298.143
298.15
298.15
298.15
298.15
298.15
298.15
298.15
298.15
298.15
298.15
298.15
298.15
298.15
298.15
298.15
298.15
298.15
298.15
298.15
298.15
298.15
298.15
298.15
298.15
298.15
298.15
298.15
298.15
298.15
298.15
298.15
298.15
298.15
298.15
298.15
298.15
298.149
298.149
298.15
298.15
298.15
298.15
298.15
298.15
298.15
298.15
298.15
298.15
298.15
298.15
298.15
298.15
298.15
298.15
298.15
298.15
298.15
298.15
298.15
298.15
298.15
298.15
298.15
298.15
298.15
298.15
298.15
298.15
298.15
298.15
298.15
298.15
298.15
298.15
298.15
298.15
298.15
298.15
298.15
298.15
298.15
298.15
298.15
298.15
298.15
298.15
298.15
298.15
298.15
298.15
298.15
298.15
298.15
298.15
298.15
298.15
298.15
298.15
298.15
298.15
298.15
298.15
298.15
298.15
298.15
298.15
298.15
298.15
298.15
298.15
298.15
298.15
298.15
298.15
298.15
298.15
298.15
298.15
298.15
298.15
298.15
298.15
298.15
298.15
298.15
298.15
298.15
298.15
298.15
298.15
298.15
298.15
298.15
298.15
298.15
298.15
298.15
298.15
298.15
298.15
298.15
298.15
298.15
298.15
298.15
298.15
298.15
298.15
298.15
298.15
298.15
298.15
298.15
298.15
298.15
298.15
298.15
298.15
298.15
298.15
298.15
298.15
298.15
298.15
298.15
298.15
298.15
298.15
298.15
298.15
298.15
298.15
298.15
298.15
298.15
298.15
298.15
298.15
298.15
298.15
298.15
298.15
298.15
298.15
298.15
298.15
298.15
298.15
298.15
298.15
298.15
298.15
298.15
298.15
298.15
298.15
298.15
298.15
298.15
298.15
298.15
298.15
298.15
298.15
298.15
298.15
298.15
298.15
298.15
298.15
298.15
298.15
298.15
298.15
298.15
298.15
298.15
298.15
298.15
298.15
298.15
298.15
298.15
298.15
298.15
298.15
298.15
298.15
298.15
298.15
298.15
298.15
298.15
298.15
298.15
298.15
298.15
298.15
298.15
298.15
298.15
298.15
298.15
298.15
298.15
298.15
298.15
298.15
298.15
298.15
298.15
298.15
298.15
298.15
298.15
298.15
298.15
298.15
298.15
298.15
298.15
298.15
298.15
298.15
298.15
298.15
298.15
298.15
298.15
298.15
298.15
298.15
298.15
298.15
298.15
298.15
298.15
298.15
298.15
298.15
298.15
298.15
298.15
298.15
298.15
298.15
298.15
298.15
298.15
298.15
298.15
298.15
298.15
298.15
298.15
298.15
298.15
298.15
298.15
298.15
298.15
298.15
298.15
298.15
298.15
298.15
298.15
298.15
298.15
298.15
298.15
298.15
298.15
298.15
298.15
298.15
298.15
298.15
298.15
298.15
298.15
298.15
298.15
298.15
298.15
298.15
298.15
298.15
298.15
298.15
298.15
298.15
298.15
298.15
298.15
298.15
298.15
298.15
298.15
298.15
298.15
298.15
298.15
298.15
298.15
298.15
298.15
298.15
298.15
298.15
298.15
298.15
298.15
298.15
298.15
298.15
298.15
298.15
298.15
298.15
298.15
298.15
298.15
298.15
298.15
298.15
298.15
298.15
298.15
298.15
298.15
298.15
298.15
298.15
298.15
298.15
298.15
298.15
298.15
298.15
298.15
298.15
298.15
298.15
298.15
298.15
298.15
298.15
298.15
298.15
298.15
298.15
298.15
298.15
298.15
298.15
298.15
298.15
298.15
298.15
298.15
298.15
298.15
298.15
298.15
298.15
298.15
298.15
298.15
298.15
298.15
298.15
298.15
298.15
298.15
298.15
298.15
298.15
298.15
298.15
298.15
298.15
298.15
298.15
298.15
298.15
298.15
298.15
298.15
298.15
298.15
298.15
298.15
298.15
298.15
298.15
298.15
298.15
298.15
298.15
298.15
298.15
298.15
298.15
298.15
298.15
298.15
298.15
298.15
298.15
298.15
298.15
298.15
298.15
298.15
298.15
298.15
298.15
298.15