/*--------------------------------*- C++ -*----------------------------------*\
| =========                 |                                                 |
| \\      /  F ield         | OpenFOAM: The Open Source CFD Toolbox           |
|  \\    /   O peration     | Version:  5.0                                   |
|   \\  /    A nd           | Web:      www.OpenFOAM.org                      |
|    \\/     M anipulation  |                                                 |
\*---------------------------------------------------------------------------*/
FoamFile
{
    version     2.0;
    format      ascii;
    class       volScalarField;
    location    "50.4676134421789371";
    object      Tdifftke;
}
// * * * * * * * * * * * * * * * * * * * * * * * * * * * * * * * * * * * * * //

dimensions      [0 2 -3 0 0 0 0];

internalField   nonuniform List<scalar> 
60000
(
8.14804e-10
1.8677e-10
1.47099e-10
-4.83949e-11
-2.27004e-10
-1.26474e-10
-1.50247e-11
-1.2304e-10
-4.1043e-10
-1.584e-10
6.02191e-10
5.33983e-10
4.2132e-10
6.78967e-10
7.42105e-10
5.89165e-10
-1.52779e-10
-1.2692e-09
-8.43748e-10
1.75847e-09
5.02008e-09
7.1561e-09
3.47302e-09
-1.04148e-08
-3.80177e-08
-6.77911e-08
-6.19674e-08
-2.39523e-08
-1.01073e-09
1.27422e-09
1.91266e-10
-1.11504e-09
6.74164e-10
4.09152e-09
3.18474e-09
4.05925e-11
3.67261e-11
-1.59857e-10
3.14744e-10
1.25405e-09
-3.44234e-09
-7.76093e-10
-5.23159e-10
-6.89959e-11
1.0192e-10
-2.67011e-10
-6.05012e-10
-1.02738e-09
-2.59264e-09
-7.96945e-09
-1.36305e-08
-1.0151e-08
-1.29708e-09
2.95861e-09
4.07488e-09
5.17195e-09
6.88612e-09
6.0181e-09
-4.39708e-09
-2.01434e-08
-1.38398e-08
2.02191e-08
3.73801e-08
5.04612e-08
7.44719e-08
5.8394e-08
-2.32378e-08
-1.01278e-07
-9.35872e-08
-3.57758e-08
-5.39688e-09
-2.66659e-09
-1.08156e-08
-2.01382e-08
-1.36673e-08
-2.96569e-09
-5.15421e-10
1.99938e-09
-2.05356e-09
-5.74808e-09
-4.72543e-09
-2.91805e-09
-7.27864e-10
6.06504e-12
-2.82341e-10
-5.03681e-10
-5.10476e-10
-4.237e-10
6.75354e-10
-1.78769e-09
-8.30542e-09
-1.00927e-08
-4.65548e-09
4.50189e-10
8.83956e-10
1.00046e-09
1.25764e-09
4.48272e-09
4.93055e-10
-1.59758e-08
-3.3573e-08
-2.30779e-09
1.71144e-08
1.79747e-08
6.27706e-08
9.0052e-08
5.10493e-08
-1.85768e-08
-4.17513e-08
-2.18794e-08
-6.10971e-09
-4.18829e-09
-5.7284e-09
-1.01015e-08
-9.37108e-09
-2.66009e-09
-3.30191e-10
-2.20944e-10
2.38898e-09
-2.98802e-09
-1.5598e-09
1.47627e-09
-1.92531e-11
-2.0963e-10
-1.08242e-09
-1.68386e-09
-6.35454e-10
5.98725e-10
9.60385e-10
6.54262e-10
-4.04112e-09
-2.84717e-09
-1.03369e-09
-1.58103e-10
-1.60668e-09
-1.04981e-09
-2.3573e-09
1.12947e-09
5.59955e-10
4.45381e-09
-1.92918e-08
-2.42269e-08
1.01876e-08
-1.42583e-08
2.57755e-08
5.55335e-08
4.21992e-08
9.27608e-09
-5.50311e-09
-2.54217e-09
1.83533e-09
-7.19678e-11
-1.45212e-09
-3.28425e-09
-2.2621e-09
1.18668e-09
-1.88927e-09
-6.88192e-09
3.56911e-10
-1.47231e-09
-1.69517e-09
4.38794e-09
8.50456e-10
-1.18715e-09
-8.93392e-10
-2.03842e-09
-4.88063e-10
2.28669e-09
1.03e-09
1.79094e-09
-2.69341e-09
-5.33418e-10
2.39557e-09
-1.13497e-09
-2.54225e-09
-2.5434e-09
-8.57621e-09
-3.46334e-09
-4.68294e-09
1.3842e-08
2.93416e-08
-4.77031e-08
1.47625e-08
-3.42412e-08
-5.18176e-09
1.4141e-08
7.65643e-09
2.56005e-10
1.21883e-09
1.16921e-09
-2.4484e-09
-5.51062e-10
2.60065e-09
3.51955e-09
1.26702e-09
-1.71704e-09
-9.14906e-09
-1.04853e-08
-3.04484e-09
2.58781e-09
1.67594e-10
-2.57882e-10
2.42534e-09
-1.35366e-09
-2.41045e-11
-7.3531e-10
-1.52776e-09
1.43089e-09
2.29667e-09
4.09219e-10
3.89839e-10
-1.48724e-09
2.79843e-09
-2.79657e-09
-5.84901e-09
-1.17726e-08
-2.46082e-08
-8.6209e-09
-1.05018e-08
-8.33759e-09
9.14231e-08
-2.70135e-08
-3.19682e-09
-2.23877e-08
9.37231e-09
1.1205e-08
1.74811e-09
9.16823e-11
1.06773e-09
4.02296e-09
9.95979e-10
-2.30875e-09
-3.80133e-09
9.30181e-11
4.48288e-09
1.37706e-09
-8.69174e-09
-1.52759e-08
-1.25479e-08
2.11408e-09
4.63998e-09
-3.05512e-09
-5.38684e-10
-8.81129e-10
1.71884e-10
1.00537e-09
-1.30861e-09
-2.41462e-09
-7.31133e-10
-5.61576e-10
2.64225e-09
1.9491e-09
8.34733e-10
-6.35617e-09
-5.36376e-09
-2.28609e-08
-3.9903e-08
-1.62745e-08
-1.08243e-08
-5.19972e-08
8.15937e-08
7.21111e-08
-2.41858e-08
1.61596e-08
3.46566e-08
4.93775e-09
-2.39045e-09
1.72001e-11
1.97879e-10
2.14996e-09
4.00303e-09
3.1651e-09
2.89602e-10
-8.2063e-09
-4.21954e-09
5.18844e-09
-6.35323e-10
-1.35742e-08
-2.02433e-08
-8.35525e-09
8.41793e-10
2.91549e-09
-2.79917e-09
-3.07864e-10
-6.69917e-10
4.98002e-10
1.07137e-09
-1.88927e-09
-6.14444e-09
-8.54838e-09
3.35032e-09
2.30381e-08
-1.83163e-09
-1.05175e-08
7.50682e-09
-1.95634e-08
-3.48547e-08
-1.76466e-08
-6.83833e-09
-6.99291e-08
-2.96457e-08
1.36997e-07
5.67827e-09
3.65196e-08
2.84476e-08
-1.0227e-08
-6.02469e-09
-5.27733e-10
1.17616e-10
4.18834e-10
2.90239e-09
5.086e-09
7.25099e-09
1.79424e-09
-1.32785e-08
-6.2323e-09
4.20919e-09
-4.22225e-09
-1.88065e-08
-2.10902e-08
-1.38533e-08
7.46046e-09
-2.00036e-10
-4.18129e-10
-1.16826e-09
-8.52652e-10
1.5532e-09
1.63663e-09
-2.01389e-09
-1.8134e-08
-1.81731e-08
4.66172e-08
2.41971e-08
-8.81187e-09
1.98077e-08
-6.8222e-09
-1.16488e-08
-8.03153e-09
-3.79996e-09
-4.2376e-08
-1.22328e-07
4.9527e-08
6.00019e-08
2.43661e-08
1.43872e-10
-1.70579e-08
-6.27172e-09
-6.41902e-10
6.73792e-11
7.69602e-10
3.01456e-09
5.78562e-09
9.7165e-09
1.23051e-08
-2.27765e-09
-1.35173e-08
-4.39182e-09
8.22968e-10
-8.6645e-09
-2.21333e-08
-2.40427e-08
-1.51339e-09
3.1891e-09
-4.72238e-10
-2.08236e-09
-9.02206e-10
3.33276e-10
1.29626e-09
6.26502e-10
-5.36173e-09
-4.69962e-08
1.45996e-08
6.72031e-08
3.12203e-09
1.49739e-08
7.03401e-09
3.16156e-09
-2.39365e-09
-1.58323e-09
-1.29983e-08
-1.00297e-07
-6.89619e-08
5.21215e-08
1.15344e-08
-1.52038e-08
-1.16763e-08
-3.82696e-09
-8.41899e-10
-3.01171e-10
1.16437e-09
4.66844e-09
7.6675e-09
1.05709e-08
1.39122e-08
7.481e-09
-6.1262e-09
-7.73359e-09
-2.80427e-09
-2.60322e-09
-1.29572e-08
-2.24825e-08
-1.91604e-08
4.75909e-09
-1.16709e-09
-1.3936e-09
7.97007e-10
-6.29904e-10
1.51845e-10
4.19317e-12
2.37399e-09
-2.8282e-08
-4.65017e-08
5.4174e-08
2.92499e-08
6.14835e-09
2.06294e-08
5.71685e-09
-4.17925e-09
-6.8777e-10
-3.49664e-09
-3.82945e-08
-8.12638e-08
3.29746e-09
1.435e-08
-1.93429e-09
-2.43439e-09
-2.58753e-10
-8.19439e-10
-3.81486e-10
1.86843e-09
7.20492e-09
9.26118e-09
1.06473e-08
1.45656e-08
9.28685e-09
9.85244e-11
-3.76235e-09
-3.23436e-09
-1.83908e-09
-6.62225e-09
-1.38101e-08
-2.58602e-08
1.81161e-09
-7.46942e-10
1.55784e-09
2.3797e-09
-6.76411e-10
-1.46107e-10
2.62137e-10
1.36327e-09
-1.12603e-09
-4.72389e-08
5.59799e-10
3.75016e-08
-6.33287e-09
1.91252e-08
9.99357e-09
-5.90778e-09
-9.5149e-10
2.01409e-09
-9.88456e-09
-3.07873e-08
-1.61422e-08
1.8496e-08
6.37832e-09
1.07572e-09
1.28885e-09
-3.26881e-10
1.04161e-11
2.18818e-09
9.49784e-09
1.31431e-08
8.48871e-09
1.54869e-08
1.37615e-08
1.78637e-09
-1.5374e-09
-1.83379e-09
-1.46768e-09
-3.97869e-09
-8.1801e-09
-1.33493e-08
-1.69599e-09
8.77865e-10
2.53206e-09
3.7282e-10
-8.92668e-10
1.61333e-10
4.35261e-10
5.89803e-10
8.35956e-09
-1.6019e-08
-1.65864e-08
2.92883e-08
-1.78261e-08
5.37068e-09
1.48762e-08
-7.57955e-09
-5.37091e-09
5.70909e-09
6.85683e-09
-2.84449e-09
-9.70495e-09
1.15568e-08
1.82664e-09
-2.12269e-09
8.78141e-10
1.21556e-10
5.88435e-11
1.23748e-09
7.81982e-09
1.70602e-08
8.91473e-09
1.09612e-08
2.09037e-08
5.96694e-09
-1.2225e-09
-1.03312e-09
-1.22563e-09
-2.50491e-09
-5.77693e-09
-3.51723e-09
-9.11909e-10
4.86986e-10
4.80993e-10
-6.69824e-10
3.94089e-10
1.25801e-09
7.25122e-10
6.0638e-11
7.6923e-09
3.26256e-09
-1.38251e-08
2.78112e-08
-7.08712e-09
-2.11426e-09
9.15106e-09
-1.11099e-08
-1.06129e-08
1.08641e-09
1.56999e-08
9.94827e-09
2.93941e-09
3.78152e-10
-5.29839e-09
-3.00328e-09
1.67484e-09
3.02201e-10
-2.5529e-10
2.36756e-10
3.04455e-09
1.25573e-08
1.22657e-08
3.33472e-10
2.25349e-08
1.55049e-08
2.72947e-10
-2.31487e-10
-8.17455e-10
-2.14814e-09
-2.66662e-09
-1.2539e-09
-6.91904e-11
-9.63236e-10
-7.61392e-10
4.0177e-10
1.32306e-09
1.22165e-09
7.27634e-10
1.17243e-10
3.39636e-09
9.33996e-09
-1.2662e-08
1.74247e-08
1.20122e-08
2.87349e-09
-2.00862e-09
-7.56461e-09
-7.18002e-09
-3.87134e-09
-1.18472e-09
7.77481e-09
8.5185e-09
-1.76762e-10
-2.79724e-09
-6.45328e-10
4.13273e-10
2.27205e-09
9.43776e-10
-5.80919e-11
2.13004e-10
3.99332e-09
1.19447e-08
-5.24827e-09
6.53294e-09
2.56049e-08
4.25434e-09
-1.11155e-10
4.76362e-10
-7.4919e-10
3.321e-10
7.67965e-10
4.58663e-10
-1.49967e-09
-1.9992e-09
1.12811e-10
1.14499e-09
1.49104e-10
-3.01392e-10
7.66247e-11
1.03197e-09
6.78895e-09
-1.06998e-08
3.33606e-11
1.5426e-08
6.17578e-09
-2.96535e-09
2.22104e-09
-1.37453e-09
-1.19616e-09
-4.58528e-09
-8.51242e-09
-1.03784e-09
2.71638e-09
9.50521e-10
-3.31214e-09
5.03227e-09
3.05773e-09
-9.95122e-10
-1.31477e-09
-1.80514e-09
-3.03545e-09
6.64221e-09
2.24101e-09
-1.77534e-08
1.51321e-08
1.0405e-08
-1.28894e-09
6.39365e-10
3.72993e-10
1.62584e-09
1.97236e-09
1.82741e-10
-2.09041e-09
-2.53789e-09
-1.49175e-10
4.24473e-10
-1.80467e-10
1.25242e-10
-2.79619e-10
-3.31574e-11
4.32076e-09
-5.9546e-09
-1.16782e-08
8.71204e-09
1.75849e-09
3.18273e-09
5.71528e-09
-1.75728e-09
-6.3103e-10
-2.06766e-09
-8.33901e-09
-3.11907e-09
-1.13842e-09
-4.47337e-10
7.71498e-09
4.4593e-09
-4.15201e-09
-3.33184e-09
1.35185e-11
-4.41702e-10
-3.16294e-09
-2.30219e-09
7.67614e-09
-1.81708e-08
-1.64265e-08
5.03056e-09
-2.56606e-09
-7.925e-10
9.78699e-10
1.42807e-09
1.65325e-09
-8.58377e-10
-4.46254e-09
-1.25096e-09
4.19794e-09
8.83116e-10
3.1049e-10
2.15818e-09
6.04595e-10
-1.28448e-09
1.96704e-09
-2.08291e-09
-7.31022e-09
4.59202e-09
-3.49589e-09
4.29148e-09
6.56104e-10
-3.67906e-09
-7.38045e-10
-1.48682e-09
-6.17387e-09
-9.64485e-10
4.10281e-11
7.58342e-12
3.58838e-09
-8.79278e-09
-5.61761e-09
1.0135e-08
5.08726e-09
-1.17573e-09
-1.37679e-10
-4.56472e-09
-3.34317e-10
-2.76166e-09
-2.74865e-08
-1.58982e-08
-8.41769e-09
-5.41269e-09
-8.25417e-11
4.62176e-10
-1.42844e-09
-6.93041e-09
-3.41054e-09
6.8937e-09
2.63324e-09
1.28519e-09
5.30703e-09
4.05586e-09
4.17412e-09
3.15311e-10
-5.07038e-10
-1.15101e-09
1.04969e-09
1.97201e-09
-1.322e-09
5.78729e-09
-1.97737e-10
-2.69398e-09
-6.94516e-10
-1.38186e-09
-2.63851e-09
-1.69638e-09
1.11104e-09
2.46973e-09
-3.51682e-09
2.20835e-09
2.97377e-09
-2.91499e-10
-6.95703e-10
-3.0219e-09
5.5637e-10
1.59842e-10
-3.09658e-09
4.80563e-09
-1.36178e-08
-2.28499e-08
-1.16109e-08
-6.58508e-09
-2.52044e-09
1.36708e-09
-2.03474e-09
-1.10264e-08
-5.85289e-09
3.58934e-09
-2.05631e-09
1.48685e-09
2.46321e-09
1.19915e-09
8.28803e-09
4.28652e-09
-1.72925e-09
-5.21964e-10
2.59137e-09
9.15167e-10
1.41104e-09
3.90402e-09
8.79383e-10
-1.53195e-09
-4.42707e-11
-1.95197e-10
-5.176e-10
1.46818e-11
-1.86459e-10
-3.90335e-10
1.27052e-09
7.38471e-10
6.00074e-10
2.16974e-09
2.85819e-09
-4.47939e-10
6.00198e-09
3.45945e-09
-1.66217e-08
-9.72979e-10
3.8293e-09
-9.73842e-09
-5.22274e-09
4.56763e-11
8.42186e-10
1.97051e-09
2.78408e-10
-2.36319e-09
-3.13395e-10
1.09338e-09
1.08209e-09
1.84395e-09
-1.34474e-09
-2.57203e-09
2.89195e-09
3.66592e-09
9.48936e-10
9.65071e-10
8.81783e-10
-1.21437e-10
3.22094e-10
1.89456e-09
1.8392e-09
-2.06342e-10
-5.69721e-10
1.67952e-10
2.68044e-10
6.19572e-10
3.66057e-10
3.98914e-10
2.36399e-10
-1.65301e-10
2.77443e-10
1.7257e-09
2.69423e-09
2.79791e-09
4.49707e-09
1.71567e-09
-1.46655e-08
-1.16405e-08
2.05385e-09
-9.14432e-10
2.70691e-09
5.45874e-09
3.40762e-09
1.53858e-09
-5.42601e-11
-3.98188e-10
7.97946e-11
4.92839e-10
1.87802e-09
7.97889e-10
-1.95632e-09
-5.23788e-09
-7.24416e-09
-3.0169e-09
8.58893e-10
-1.94926e-10
1.05491e-09
5.87631e-11
-7.67144e-10
-4.65859e-10
-5.77269e-10
6.15797e-10
7.09063e-10
6.36158e-10
6.49611e-11
-7.21404e-11
8.17206e-10
2.81884e-10
-9.62881e-10
-1.18161e-09
-4.34322e-10
4.26716e-10
6.71273e-10
8.70063e-10
9.33962e-10
-8.09672e-10
-6.28011e-09
-5.39859e-09
6.60993e-10
4.2036e-10
8.13359e-10
3.17617e-09
3.13005e-09
3.10992e-12
-1.57302e-10
8.64403e-11
8.1307e-12
-7.68514e-10
-1.57978e-09
-1.50875e-09
-7.48671e-10
-2.39868e-10
-2.37097e-09
-9.15649e-10
9.53174e-10
8.973e-11
5.48001e-10
-1.09589e-09
-1.74919e-09
-1.19896e-09
-1.12122e-09
-1.05737e-11
4.25199e-10
1.51729e-10
1.50106e-10
4.31062e-10
8.47021e-11
-1.29099e-09
-8.45214e-10
2.62068e-10
6.33944e-10
1.46925e-09
2.39892e-10
-2.68736e-10
4.17073e-10
-1.69302e-10
-2.02157e-09
-3.5673e-09
-6.18898e-10
-1.21154e-10
5.68178e-10
1.28192e-09
6.89336e-10
9.31575e-11
2.51981e-10
9.95289e-11
-2.49032e-10
-7.60482e-10
-2.95499e-09
-5.72436e-09
-5.55383e-09
-2.15342e-09
3.0714e-09
5.41796e-09
2.73591e-09
-6.6757e-10
-3.13849e-10
-2.57138e-10
-4.26624e-10
-1.50485e-10
-5.22359e-10
-8.35599e-10
-4.70102e-10
-1.63287e-10
-2.6601e-10
1.48497e-10
8.81772e-10
9.38014e-10
8.11163e-10
1.08775e-09
1.72482e-09
2.05746e-09
5.76798e-10
-3.37195e-10
6.37144e-10
-1.94034e-09
-2.52893e-09
-1.15889e-09
-6.73979e-10
2.73008e-10
1.4353e-10
-6.8566e-11
3.8375e-11
-5.61646e-12
1.46716e-10
3.69755e-10
4.54327e-10
-7.00199e-10
-4.01706e-09
-5.75015e-09
-1.70894e-09
-6.38085e-10
-3.17472e-09
7.80686e-10
2.12241e-09
8.41598e-11
-1.11996e-09
-2.50388e-10
1.41862e-09
7.02999e-10
-4.79068e-10
-6.99853e-10
-2.60573e-11
5.71987e-10
3.26873e-10
1.87686e-10
5.44891e-10
4.2451e-10
5.41943e-11
3.56093e-10
7.40011e-10
1.53044e-09
1.80601e-09
9.10055e-10
4.12849e-10
-2.69349e-10
-2.87207e-09
-2.49895e-09
-4.49178e-10
4.26865e-10
1.04669e-09
1.25709e-09
6.49691e-10
5.16794e-12
-8.45991e-11
-1.03097e-10
-2.48097e-11
-4.78814e-10
-1.07369e-09
-8.8639e-10
-3.79759e-10
1.04436e-11
6.08508e-11
1.99028e-10
3.29855e-11
-7.45827e-10
-2.31753e-09
-5.58836e-09
-1.12204e-08
-1.65298e-08
-1.67099e-08
-1.06211e-08
-1.55154e-09
3.29085e-09
3.94327e-09
1.70994e-09
7.85048e-12
-4.10455e-09
-6.60109e-09
-2.24616e-09
2.71565e-09
2.93304e-09
1.30772e-10
-8.50482e-09
-1.82878e-08
-1.93846e-08
-7.09291e-09
-1.04947e-09
-2.61288e-10
-4.02521e-09
1.52303e-10
-1.03667e-10
-8.39249e-11
-7.42626e-10
-1.01552e-10
4.94834e-12
1.13271e-09
2.44265e-09
7.69613e-10
-2.10664e-09
-2.12061e-09
-6.9323e-10
-1.2213e-09
9.59695e-10
6.34829e-09
1.26277e-08
1.91539e-08
2.31215e-08
2.246e-08
1.85035e-08
1.05782e-08
-6.4009e-09
-3.08991e-08
-2.92315e-08
-7.08629e-09
8.73746e-09
1.50467e-08
5.19694e-10
-2.40043e-08
-4.31099e-08
-4.20172e-08
-1.4908e-08
2.25429e-08
4.44705e-08
2.61738e-08
-2.99882e-08
-7.13998e-08
-5.02648e-08
-2.66422e-08
-4.11837e-09
1.37585e-08
1.75415e-09
-2.95791e-09
-2.28597e-09
-5.21353e-10
-3.0376e-11
8.71901e-10
2.95763e-09
3.76743e-09
1.02757e-09
-1.76223e-09
-2.13309e-09
-4.86036e-09
-4.53019e-09
1.42289e-09
8.47767e-09
1.4782e-08
1.74844e-08
1.73574e-08
2.05876e-08
2.0002e-08
8.69077e-09
-1.33947e-08
-1.23843e-08
1.98596e-09
-1.55631e-08
-3.46673e-10
-1.17258e-09
-8.38766e-09
-1.96315e-08
-2.38575e-08
-1.222e-08
7.50054e-09
2.71557e-08
3.01517e-08
7.89345e-09
-2.08937e-08
-2.26126e-08
-1.43044e-08
-6.22044e-09
1.25858e-09
1.33394e-08
-3.26894e-09
-1.9008e-09
-5.50904e-11
-1.40735e-10
3.54172e-10
1.72566e-09
3.47311e-09
3.37311e-09
2.99845e-10
-3.81975e-10
-3.19497e-09
-7.21899e-09
-2.101e-09
3.72393e-09
7.83537e-09
6.80375e-09
4.28875e-09
1.30879e-08
1.90082e-08
1.31989e-08
-4.25863e-10
3.91866e-09
6.01937e-08
-1.6665e-08
-1.46563e-08
-1.58842e-08
-7.92737e-09
-4.25577e-09
-4.75394e-09
-1.70644e-09
2.80624e-09
1.0124e-08
1.61963e-08
1.21986e-08
1.3974e-09
-2.33824e-09
-7.60239e-09
-1.77617e-08
1.54316e-09
2.25999e-08
7.47578e-09
1.07005e-09
5.47117e-11
-7.7191e-11
8.80781e-11
8.19001e-11
1.00637e-09
3.24898e-09
1.81704e-09
7.45993e-11
1.48926e-09
-8.24548e-09
-7.23845e-09
9.12946e-10
3.23641e-09
-5.80001e-09
-1.68027e-08
-6.29627e-09
1.79846e-09
8.95892e-10
2.58943e-10
-2.67857e-08
8.9207e-08
1.40953e-08
-1.86466e-08
-3.07364e-08
-2.25004e-08
-9.46365e-09
-1.88238e-09
6.72958e-10
-2.11617e-10
1.08701e-10
1.76629e-09
2.5026e-09
8.09552e-10
-1.98461e-09
-2.31574e-08
-5.46456e-08
-6.31379e-09
3.36937e-08
3.10568e-08
2.02865e-08
5.69229e-10
-3.93258e-10
3.31402e-11
-2.52521e-09
-3.04177e-09
9.33983e-10
3.42923e-09
2.77221e-10
3.32293e-09
-2.06637e-09
-1.24124e-08
-2.1579e-09
4.83574e-09
-1.11577e-08
-2.33352e-08
-6.8842e-09
-3.41777e-10
-1.89021e-09
7.05537e-09
-4.62916e-08
5.44966e-08
5.9167e-08
-2.57668e-08
-2.511e-08
-1.26984e-08
-6.20005e-09
-1.86157e-09
1.22809e-09
2.22905e-10
-2.37136e-09
-3.30692e-09
-3.57675e-10
9.16567e-10
-7.81724e-10
-1.69971e-08
-7.2284e-08
-5.12725e-08
1.99766e-08
4.03565e-08
3.47041e-08
1.35e-08
-5.62041e-10
8.74878e-10
-5.17795e-09
-1.01834e-08
-5.30991e-09
1.37496e-09
1.85226e-09
3.74689e-09
3.72561e-09
-7.12998e-09
-2.89245e-09
8.57757e-09
-1.02681e-08
-1.05798e-08
7.69475e-09
2.19382e-09
-2.69698e-11
5.04238e-09
-3.66046e-08
-3.68366e-09
8.98701e-08
-1.40961e-08
1.6768e-09
1.37959e-08
4.25273e-09
2.27379e-10
1.85043e-09
2.25676e-09
-1.484e-09
-6.35141e-09
-2.03513e-09
4.42457e-09
-6.05642e-10
-7.2389e-09
-4.20945e-08
-6.74753e-08
-1.69474e-08
1.27113e-08
7.71045e-09
4.16807e-08
6.52217e-09
3.29202e-09
-3.05363e-09
-1.9839e-08
-1.68562e-08
-4.07922e-09
-1.18193e-09
1.04934e-08
8.32901e-09
-2.81887e-09
5.30458e-09
9.94425e-09
-7.50882e-09
1.1707e-08
2.12117e-08
7.64096e-10
1.52513e-09
1.34275e-09
-2.90862e-08
-4.63042e-08
7.85287e-08
2.28194e-08
2.27425e-08
2.38071e-08
3.8163e-09
6.4997e-10
2.1872e-09
4.42867e-09
5.24056e-09
8.30204e-10
-1.91594e-09
7.87372e-09
4.50958e-09
-7.78767e-09
-1.79607e-08
-4.29385e-08
-3.91522e-08
-2.60963e-08
-4.08567e-08
4.34947e-08
3.60706e-08
6.76202e-09
2.03259e-09
-2.36323e-08
-2.45335e-08
-1.06292e-08
-1.13537e-08
4.65968e-09
2.42796e-08
-5.64452e-09
7.30534e-09
4.5657e-09
-3.12811e-09
2.42363e-08
1.80333e-08
-3.19347e-09
1.53233e-09
2.94553e-10
-2.44867e-08
-5.67278e-08
3.48412e-08
4.99131e-08
2.49742e-08
1.19198e-08
-2.19995e-09
2.31723e-11
2.47707e-09
5.30936e-09
9.81794e-09
1.07612e-08
5.94984e-09
1.05622e-08
1.37699e-08
-5.02461e-09
-1.35512e-08
-1.85385e-08
-3.03665e-08
-5.31768e-08
-9.16945e-08
-2.46816e-09
7.38866e-08
2.39883e-08
2.18554e-09
-2.17934e-08
-2.25652e-08
-1.49071e-08
-1.17517e-08
-2.06406e-08
2.21382e-08
6.92781e-09
-1.09119e-08
-4.01507e-09
3.44501e-10
1.47149e-08
2.74591e-09
-9.43557e-09
1.06125e-09
-1.76581e-09
-1.50731e-08
-4.14928e-08
-4.41916e-09
4.98441e-08
1.2871e-08
-1.625e-09
-3.14291e-09
-9.12528e-11
1.93592e-09
4.55392e-09
1.18164e-08
1.76448e-08
1.12738e-08
7.48519e-09
1.36459e-08
3.91197e-09
-9.70369e-09
-9.71558e-09
-1.49294e-08
-5.45617e-08
-1.28836e-07
-5.72086e-08
7.18661e-08
5.53522e-08
1.20381e-08
-5.04485e-09
-1.9957e-08
-1.33854e-08
-5.10356e-09
-2.57188e-08
-5.95627e-09
2.07656e-08
-2.62556e-08
-1.80997e-08
-3.73656e-09
-8.48481e-09
-1.22997e-08
-1.19607e-08
3.73891e-10
-4.45e-09
-1.27237e-08
-2.58859e-08
-1.89075e-08
3.18213e-08
1.0463e-08
3.05242e-09
-1.95244e-10
-5.83488e-11
8.0692e-10
2.91233e-09
1.12564e-08
2.05463e-08
1.32288e-08
5.3546e-09
9.28059e-09
5.54541e-09
-2.98337e-09
-4.72974e-09
-5.90456e-09
-3.61895e-08
-1.00789e-07
-8.993e-08
3.37686e-08
5.58403e-08
2.81506e-08
2.35411e-08
-9.36113e-09
-6.94084e-09
-5.99633e-10
-1.34472e-08
-1.87694e-08
2.35974e-08
-1.4724e-08
-2.48094e-08
-1.1423e-08
-2.09331e-08
-1.48017e-08
-6.48407e-09
-4.58052e-10
-6.10432e-09
-2.08771e-08
-3.15195e-08
-2.90698e-08
1.42405e-08
2.26478e-08
8.03721e-09
2.15203e-09
4.56917e-10
-2.45484e-10
4.4844e-10
7.28686e-09
1.60259e-08
1.09164e-08
3.11838e-09
1.38035e-08
7.7509e-09
-1.45999e-09
-1.8264e-09
-1.33363e-09
-1.56349e-08
-3.54628e-08
-6.05278e-08
5.08985e-09
1.86505e-08
2.58082e-08
2.94047e-08
2.07475e-09
-1.02726e-09
1.56496e-09
-7.40299e-09
-1.93821e-08
2.42025e-08
7.06761e-09
-1.90392e-08
-3.30918e-09
-6.97129e-09
-2.31907e-09
-6.85473e-10
-1.34477e-09
-4.77615e-09
-2.4683e-08
-4.3983e-08
-3.52488e-08
7.88497e-09
1.40108e-08
2.45447e-09
3.06711e-09
-1.92706e-10
-2.75079e-09
-2.44145e-09
2.33897e-09
6.6901e-09
3.36953e-09
-6.56133e-09
1.45438e-08
1.62165e-08
-4.07665e-10
-1.98526e-09
-4.02805e-10
-5.18959e-09
-9.26872e-09
-1.71786e-08
4.84505e-09
3.2954e-11
1.17698e-08
1.22029e-08
1.65509e-09
-4.71078e-11
1.36955e-09
-1.27811e-09
-2.3976e-08
1.18714e-08
3.00584e-08
-1.04528e-08
4.24031e-09
1.30533e-08
8.08396e-09
-1.40147e-09
-2.72866e-09
-1.25591e-09
-1.17453e-08
-3.21417e-08
-2.03163e-08
6.69469e-09
-5.79303e-10
8.91322e-10
-8.04967e-10
-5.2438e-09
-4.15588e-09
-3.05413e-09
-1.31362e-09
5.21496e-10
-2.16997e-09
-1.6751e-08
-2.02774e-09
2.42547e-08
4.19473e-09
-2.09189e-09
-1.45345e-09
-2.90534e-09
-4.41496e-09
-1.76984e-09
-2.25019e-10
-7.41693e-10
3.37653e-09
1.66251e-09
-6.33949e-10
-5.77965e-10
1.2059e-10
-1.19429e-09
-2.19511e-08
-1.03119e-08
3.8223e-08
1.87261e-09
3.1597e-09
1.66234e-08
5.79395e-09
-5.0398e-09
-3.59438e-09
-3.31527e-10
-4.33356e-09
-1.43188e-08
-5.04069e-09
4.07583e-09
-5.54721e-10
-1.78995e-10
-9.4823e-09
-1.01233e-09
3.42713e-09
-2.45639e-09
-3.39643e-09
-7.5159e-10
-2.45768e-09
-1.29765e-08
-2.59429e-08
1.43386e-08
1.19487e-08
-1.48576e-09
-9.18195e-10
-2.80677e-09
-1.92151e-09
3.51698e-10
-8.97522e-10
4.50378e-10
1.14937e-09
1.64348e-10
1.53343e-10
5.5377e-11
4.77829e-11
-4.41685e-09
-2.3184e-08
-2.05584e-08
3.28658e-08
1.57232e-08
-3.87166e-10
6.22708e-09
-1.79717e-09
-4.35928e-09
-1.83558e-09
-6.14656e-10
-4.33666e-09
-1.63477e-08
-2.03508e-08
-2.21915e-09
3.60288e-09
-9.94539e-09
4.10713e-10
1.26083e-08
2.78279e-09
-1.75663e-09
-2.55909e-09
-6.33241e-09
-3.05273e-09
-7.48922e-09
-2.76001e-08
-1.7461e-08
1.14525e-08
3.35447e-10
-1.04116e-09
-1.25053e-09
-8.47354e-10
3.35143e-10
-1.08625e-10
2.6318e-10
2.90036e-10
1.68882e-10
2.6352e-10
4.73646e-10
4.95218e-10
-4.73998e-09
-2.82935e-08
-3.10707e-08
1.89015e-08
2.37309e-08
-1.48826e-09
-1.78209e-10
-1.20806e-09
-3.13763e-09
-1.36246e-09
-5.81492e-10
-1.46638e-09
-6.97215e-09
-1.58714e-08
-2.98225e-09
3.11952e-09
2.34417e-09
1.17547e-08
5.68421e-09
-2.47422e-09
-4.29956e-09
1.68702e-09
-4.62249e-09
-8.97522e-09
-3.27781e-10
-1.38163e-08
-3.42833e-08
-1.02404e-08
-3.50775e-11
-2.16625e-09
-2.82765e-10
-1.89568e-10
-8.09123e-11
-6.64053e-10
-9.97744e-10
-4.33818e-11
1.16868e-09
2.62938e-10
2.19128e-10
1.66309e-09
-1.19993e-09
-2.20886e-08
-3.74387e-08
-3.58582e-09
2.25495e-08
3.09029e-09
5.10736e-09
3.48481e-09
-2.66114e-09
-1.2211e-09
-1.45687e-10
-4.82873e-10
-2.90715e-09
-8.97541e-10
6.88541e-09
5.53038e-09
1.08023e-08
8.33478e-09
-4.23084e-09
-3.56245e-09
4.25933e-09
5.21067e-09
1.2035e-09
-1.06345e-08
2.87371e-09
1.66319e-09
-1.92869e-08
-2.63103e-08
-6.57911e-09
-2.33827e-09
-8.40725e-10
9.20048e-10
1.10254e-09
-1.72293e-09
-2.03748e-09
4.08974e-10
-1.21222e-09
-6.82254e-10
1.46405e-09
3.2032e-09
7.01397e-09
-2.92332e-09
-1.96674e-08
-1.01147e-08
8.02709e-09
5.02168e-10
6.00522e-09
5.82918e-09
2.88681e-10
-1.07026e-09
-3.75982e-10
5.49218e-12
1.45295e-10
1.68572e-09
-3.13039e-10
4.51407e-09
9.48771e-09
5.67283e-10
9.60776e-10
1.96091e-09
-3.67662e-10
8.5226e-10
-5.2807e-09
-3.8551e-09
6.12019e-09
1.23685e-08
-4.87051e-10
-1.1622e-08
-8.03275e-09
-3.26584e-10
5.3707e-10
2.82885e-09
1.04366e-09
-2.16327e-09
-1.47175e-09
9.66165e-10
-6.77621e-10
-9.90792e-11
1.32855e-09
1.7056e-09
7.90243e-09
1.08787e-08
-8.12133e-10
-1.45076e-09
1.84934e-10
-2.46892e-09
2.10819e-09
1.42252e-09
-2.86398e-10
-1.47814e-10
-1.92433e-10
-2.32204e-10
-1.06896e-10
-1.52284e-10
1.34028e-09
1.57887e-09
1.44547e-10
1.24339e-09
9.62361e-10
-3.148e-10
-2.21518e-09
-6.36388e-10
-1.77216e-09
-2.40369e-08
-1.17456e-08
1.54865e-08
1.03449e-08
3.23489e-10
-1.0555e-09
1.74233e-09
3.41145e-09
3.34118e-09
-8.8835e-11
-1.14884e-09
1.71391e-10
1.26981e-09
1.72374e-09
7.27716e-10
2.24578e-10
-1.41987e-09
-5.93895e-10
5.84288e-09
5.11553e-09
3.64442e-09
2.90157e-09
1.17827e-09
-2.71281e-10
-4.66515e-10
7.18989e-11
2.82882e-10
-8.04307e-11
-1.13442e-10
1.13882e-10
5.62431e-11
4.15976e-11
-3.09708e-10
-9.87681e-10
-1.59984e-09
-1.48746e-09
6.83153e-10
2.08581e-09
5.95257e-10
-8.30943e-11
-1.96255e-08
-4.22021e-08
-1.50186e-08
8.92012e-09
3.30516e-09
3.944e-09
8.5345e-09
7.48093e-09
2.72923e-09
-4.50478e-10
-2.93304e-10
2.0114e-10
4.11976e-10
9.09814e-10
4.47006e-10
-1.25735e-10
-2.14312e-09
-6.38859e-09
-4.76582e-09
3.06579e-09
1.843e-09
2.12934e-10
1.01734e-09
2.95809e-10
-1.04963e-09
-1.32974e-09
4.41241e-10
1.99228e-10
1.0247e-10
2.48609e-10
4.28316e-10
-4.02316e-11
-1.46333e-09
-1.5452e-09
-2.06875e-11
5.15986e-10
-4.67664e-10
-6.23944e-10
-9.61535e-11
-5.52729e-10
-7.5885e-09
-2.02162e-08
-1.51691e-08
-2.41239e-09
1.19173e-09
2.18346e-09
5.96552e-09
6.63137e-09
1.09959e-09
-1.90433e-10
5.96983e-11
2.74259e-10
1.11646e-11
3.12279e-10
3.51436e-10
-5.26973e-10
-1.5969e-09
-3.17252e-09
-2.54945e-09
3.25238e-09
1.32663e-09
6.15666e-10
6.59849e-10
-6.66343e-10
-1.04298e-09
-9.26847e-10
5.00795e-10
1.81608e-10
-2.22551e-10
-3.26521e-10
3.1062e-10
1.30856e-10
-1.77024e-09
-8.59214e-10
1.73229e-09
1.43035e-09
5.82932e-10
3.27195e-10
-3.9759e-10
-2.30686e-10
-2.13813e-09
-7.62117e-09
-5.04341e-09
-3.52016e-10
3.04185e-10
8.07694e-10
1.56432e-09
1.77374e-09
-5.21002e-10
-3.02213e-11
-8.59935e-11
-6.24854e-11
-5.14776e-10
-1.59889e-09
-2.41439e-09
-3.30589e-09
-4.62861e-09
-4.10357e-09
1.72627e-10
5.73959e-09
2.38669e-09
-7.69169e-10
-2.08759e-10
-9.03113e-11
-6.11699e-10
-1.26254e-09
-9.22454e-10
-2.63778e-10
-1.22371e-10
-5.42536e-11
5.49046e-10
8.55292e-10
4.61354e-10
4.63864e-10
5.67579e-10
1.78675e-10
6.83628e-10
9.57737e-10
-1.15531e-10
-5.99926e-10
-2.39155e-09
-3.24129e-09
-1.67421e-09
3.14273e-10
7.5744e-10
-5.61662e-10
-1.90017e-09
-1.56137e-09
-1.44004e-09
-1.21311e-09
-7.60526e-11
-3.04544e-11
-1.82787e-09
-2.9028e-09
-2.87429e-09
-1.33308e-09
-7.48706e-10
-2.35366e-09
-2.13003e-09
-8.64828e-10
-4.33661e-10
-5.24054e-10
-4.09548e-10
1.09165e-09
1.92784e-09
1.26551e-10
-1.2396e-09
-5.76256e-10
5.04901e-10
7.56334e-10
1.2818e-09
1.36956e-09
1.67258e-10
-1.1383e-10
-3.29548e-12
-3.54579e-10
4.41373e-10
1.10104e-09
5.88845e-10
1.31391e-10
-1.7348e-09
-4.63819e-09
-4.0571e-09
-1.08255e-09
1.69925e-09
2.71166e-09
1.56063e-09
-2.72494e-10
-2.50583e-10
-1.80277e-10
-4.05059e-11
-2.7138e-10
-8.33228e-10
-8.03847e-10
-4.56563e-10
2.28912e-10
5.12309e-10
3.16132e-10
8.23978e-12
-2.7368e-10
-6.00831e-10
-1.87166e-09
-7.15424e-09
-1.23988e-08
-1.72056e-08
-2.54165e-08
-3.48017e-08
-2.00648e-08
2.43942e-09
2.40193e-09
1.25709e-10
-6.31638e-10
1.91518e-09
2.30661e-09
8.62192e-10
1.00495e-09
9.48813e-10
-5.16383e-09
-1.73485e-08
-2.1063e-08
-1.12248e-08
-1.98937e-09
-2.32815e-10
3.44919e-10
-7.89442e-10
-6.60393e-10
-6.76183e-11
-2.23148e-10
-8.7036e-09
-6.84899e-09
-2.90839e-09
1.01449e-09
2.42148e-09
1.05816e-09
-8.12785e-10
-1.22983e-09
3.71999e-10
2.8812e-09
7.3674e-09
1.47031e-08
2.18984e-08
2.6103e-08
2.75859e-08
3.24151e-08
4.15498e-08
4.28305e-08
4.01875e-09
-5.86797e-08
-6.49388e-08
-2.64087e-08
-4.00616e-09
-1.63328e-08
-2.57335e-08
-2.99663e-08
-2.38538e-08
-4.72105e-09
2.41623e-08
4.9096e-08
3.86054e-08
-1.31042e-08
-5.28767e-08
-4.23694e-08
-1.6246e-08
-5.10971e-09
1.76418e-09
6.78703e-10
-1.55798e-09
-6.03562e-09
-1.0515e-08
-8.59066e-09
-4.06812e-09
1.23462e-09
3.69976e-09
2.2433e-09
4.31763e-10
-4.99905e-10
-5.9872e-10
3.65669e-10
2.90756e-09
8.56375e-09
1.43608e-08
1.63532e-08
1.84532e-08
2.46207e-08
3.49464e-08
4.69863e-08
4.60383e-08
2.96877e-09
-3.52456e-08
-1.73842e-08
1.28212e-08
-1.29724e-08
-2.46822e-08
-2.29378e-08
-1.87692e-08
-5.29712e-09
1.21302e-08
3.21025e-08
3.9992e-08
1.89664e-08
-1.21336e-08
-2.05627e-08
-9.57455e-09
-1.80892e-09
-8.83423e-10
-5.20562e-09
-2.93532e-09
-3.48598e-09
-5.16486e-09
-5.54733e-09
-2.07349e-09
8.12742e-10
1.68852e-09
6.10537e-10
-2.50594e-10
-7.77e-10
-1.23054e-09
-9.82627e-10
-1.29346e-10
2.31477e-09
6.35046e-09
7.69724e-09
9.73157e-09
1.58522e-08
2.07778e-08
2.56252e-08
3.09126e-08
1.76639e-08
-1.41557e-09
8.37467e-09
5.02579e-08
4.58013e-09
-2.65131e-08
-1.52646e-08
-1.08463e-08
-3.73127e-09
2.82584e-09
1.10709e-08
1.96777e-08
1.63651e-08
4.80781e-09
-1.02889e-09
-1.26767e-09
-2.68409e-09
-4.70285e-09
-6.5101e-09
-6.52936e-09
1.16717e-08
1.93128e-08
-5.88819e-09
-2.5068e-09
2.84831e-10
6.19323e-10
-2.48971e-10
-4.07303e-10
-4.94006e-10
-6.39668e-10
-4.61222e-10
1.49901e-11
1.67202e-10
2.43663e-09
2.43959e-09
3.13908e-09
7.43118e-09
5.80732e-09
3.45107e-09
4.44203e-09
6.52987e-10
2.45537e-09
-2.93758e-09
4.71841e-08
3.85694e-08
-2.36842e-08
-1.52675e-08
-5.98793e-09
-2.13895e-09
5.19674e-10
7.90837e-10
2.57105e-09
1.51062e-09
-1.07409e-09
-1.10047e-09
-7.14187e-09
-2.20245e-08
-2.08924e-08
-4.69652e-09
-5.02751e-11
3.10135e-08
9.13875e-08
6.20006e-09
-5.74236e-09
-7.47579e-10
4.76803e-10
-7.30016e-10
-2.98582e-10
6.94033e-10
-1.4226e-10
-5.96828e-10
-3.94921e-11
7.67052e-11
5.95951e-10
1.04029e-09
5.99554e-09
1.06465e-08
2.06252e-09
-2.47348e-09
-1.04415e-09
-6.3609e-10
1.9834e-09
-6.87732e-09
1.77912e-08
5.67571e-08
-1.92414e-08
-2.13986e-08
-7.52218e-09
-4.40292e-09
3.61497e-10
-2.93876e-10
-1.36026e-09
-2.5644e-09
-2.91043e-09
-4.13754e-10
-4.63351e-09
-2.44336e-08
-3.98189e-08
-2.67307e-08
-8.82106e-09
2.15544e-08
1.54226e-07
7.67217e-08
-7.27714e-09
-3.44927e-09
6.42821e-10
-9.68507e-10
-9.09325e-10
1.74069e-09
2.78303e-09
3.90832e-10
-1.97891e-09
-1.1687e-09
-2.0134e-09
-6.11695e-10
1.13268e-08
1.21806e-08
-1.23489e-09
-3.46989e-09
-3.40106e-09
2.74358e-09
1.29711e-09
9.2737e-10
1.16397e-08
5.27904e-08
-6.71708e-09
-1.3548e-08
-4.64759e-09
-3.80629e-09
4.1165e-11
3.09505e-10
-1.0906e-09
-3.14806e-09
-3.03342e-09
4.16867e-09
2.74436e-09
-1.33341e-08
-3.47655e-08
-4.44087e-08
-4.98333e-08
-1.48203e-08
1.15389e-07
2.20893e-07
1.32573e-08
-5.92983e-09
4.46221e-10
-2.33598e-10
-1.783e-09
3.76906e-10
2.47634e-09
4.80827e-09
1.13794e-09
-3.08895e-09
-7.99812e-09
-5.52388e-09
9.91044e-09
5.17229e-09
-2.6689e-09
-1.8383e-09
-4.09538e-09
7.47459e-09
8.53167e-10
4.68408e-10
2.21987e-08
3.56869e-08
8.64181e-09
-1.69483e-09
8.95234e-10
3.00465e-10
9.13517e-10
1.60502e-09
2.02274e-09
1.88456e-10
-3.18961e-09
6.01393e-09
1.48552e-08
-6.93464e-10
-1.8812e-08
-3.88713e-08
-9.09849e-08
-8.21751e-08
-2.01687e-09
3.14174e-07
8.93293e-08
-3.14335e-09
1.39505e-09
4.06344e-10
-2.45419e-09
-2.31702e-09
-1.13993e-09
-5.52862e-10
1.02341e-08
2.66484e-09
-1.26677e-08
-9.94195e-09
2.15041e-09
-1.17787e-09
-1.46459e-09
-1.17217e-10
-4.59126e-09
1.0646e-08
-3.51757e-09
-6.23138e-10
2.10184e-08
3.00009e-08
2.22186e-08