/*--------------------------------*- C++ -*----------------------------------*\
| =========                 |                                                 |
| \\      /  F ield         | OpenFOAM: The Open Source CFD Toolbox           |
|  \\    /   O peration     | Version:  5.0                                   |
|   \\  /    A nd           | Web:      www.OpenFOAM.org                      |
|    \\/     M anipulation  |                                                 |
\*---------------------------------------------------------------------------*/
FoamFile
{
    version     2.0;
    format      ascii;
    class       volScalarField;
    location    "50.4676134421789371";
    object      Tdiffvv;
}
// * * * * * * * * * * * * * * * * * * * * * * * * * * * * * * * * * * * * * //

dimensions      [0 2 -3 0 0 0 0];

internalField   nonuniform List<scalar> 
60000
(
2.89894e-11
1.98559e-11
1.83618e-12
-2.61272e-13
-3.26491e-12
-1.6819e-13
-7.38174e-15
-4.46232e-14
1.09767e-14
3.1143e-13
5.79979e-12
8.90397e-12
5.72066e-13
-1.11852e-13
-2.72438e-13
-6.04698e-13
-4.33574e-12
-9.10364e-12
-1.67631e-13
3.7798e-12
8.0337e-12
1.8187e-12
-1.03436e-12
-1.5551e-11
-2.00346e-10
-3.93406e-10
-1.70662e-10
-6.69407e-12
3.44581e-12
3.08497e-12
6.62784e-13
1.91742e-12
3.99395e-12
1.0511e-11
1.24017e-11
-6.31175e-14
-7.61126e-13
4.87346e-14
2.06109e-12
1.6461e-11
7.37786e-11
8.97582e-11
9.09515e-12
-3.73653e-12
-2.27849e-11
-2.84231e-12
-1.73013e-12
-2.79429e-12
-6.64932e-13
1.17405e-11
2.16162e-11
2.84594e-11
-2.9033e-12
9.97686e-12
9.04294e-12
-1.0775e-11
-8.00396e-11
-1.58343e-10
-2.6138e-11
1.08764e-10
5.54277e-10
2.54421e-10
4.90586e-11
2.08597e-10
-7.97877e-10
-2.1846e-09
-1.52403e-09
-4.74263e-10
-3.81184e-11
1.94789e-11
-1.53818e-11
-7.5989e-12
2.62439e-11
3.32116e-11
1.11697e-11
-1.41857e-11
-6.81317e-12
-9.80326e-12
1.5761e-11
2.13316e-11
2.16389e-10
2.71388e-10
-1.10872e-11
-1.30495e-11
-4.93682e-11
-9.70925e-12
-5.98835e-12
-3.04321e-12
1.19672e-12
2.79634e-11
7.30465e-11
1.30314e-10
-6.13904e-13
-1.14149e-11
5.21955e-12
-1.02726e-10
-2.85073e-10
-3.64961e-10
-4.22186e-11
6.67007e-10
3.13556e-09
1.29795e-09
4.24614e-11
2.07804e-10
-2.80781e-09
-4.61208e-09
-2.66542e-09
-1.0188e-09
9.02439e-11
3.02423e-10
-3.15654e-11
-7.85157e-11
-2.96492e-11
5.94008e-11
6.20219e-11
-3.16787e-12
-7.11921e-13
-4.35546e-11
-5.10571e-11
5.70742e-11
3.18226e-10
8.12843e-10
7.85375e-11
-2.00396e-11
-5.49841e-11
9.85514e-12
1.6169e-12
-2.25595e-12
-1.87453e-11
6.19169e-12
9.90365e-11
3.87079e-10
2.78016e-10
-1.1004e-10
-1.52137e-10
-6.21578e-10
-1.04624e-09
-6.08466e-10
-1.0841e-10
9.04913e-10
9.07248e-09
5.49041e-09
1.65162e-10
-1.29427e-09
-9.0661e-09
-9.03396e-09
-2.8967e-09
-5.54469e-10
7.02142e-10
1.34363e-09
3.27545e-10
-9.86151e-11
-5.69989e-11
2.55533e-11
-1.06115e-11
2.94363e-11
-3.118e-11
-4.24697e-11
-2.51594e-10
6.07568e-11
2.65715e-10
1.13378e-09
4.07732e-10
-5.07062e-11
-3.01379e-11
8.96985e-11
4.4472e-11
3.52141e-12
-6.72656e-11
-1.72423e-10
9.24876e-11
7.61591e-10
1.20835e-09
-2.4908e-10
-4.25463e-10
-1.66097e-09
-2.70593e-09
-1.11405e-09
-4.89868e-10
-1.23188e-09
1.4564e-08
1.52024e-08
8.24774e-10
-2.78073e-09
-1.92388e-08
-1.79301e-08
-5.37476e-09
-5.57587e-10
5.69482e-10
2.47743e-09
1.65576e-09
2.31713e-10
-3.01683e-11
-2.43203e-11
-2.21597e-10
-2.12359e-10
-8.47954e-11
-3.6459e-11
-4.33599e-10
-1.37334e-10
4.32754e-10
5.57974e-10
5.72879e-10
-2.0153e-10
2.8708e-11
1.93695e-10
1.54905e-10
1.48705e-11
-1.60974e-11
-5.54147e-10
-2.45347e-10
1.02905e-09
3.16695e-09
-2.91804e-10
-1.03676e-09
-2.76285e-09
-5.88968e-09
-2.41154e-09
-7.56096e-10
-5.56464e-09
1.24906e-08
2.47753e-08
2.82436e-09
-3.06427e-09
-2.90401e-08
-2.65608e-08
-7.8715e-09
-6.96232e-10
3.09235e-10
1.51635e-09
2.07487e-09
8.97239e-10
2.42011e-10
1.6872e-11
-2.88533e-10
-6.68976e-10
-2.96688e-10
-1.04235e-10
-1.78013e-10
-4.30312e-10
1.68707e-10
4.77424e-10
4.96002e-11
-3.77278e-10
4.51994e-12
2.41483e-10
2.33428e-10
4.05394e-11
1.35925e-10
-3.76301e-10
-1.30414e-09
6.18287e-10
6.57321e-09
5.92057e-10
-2.29854e-09
-2.62843e-09
-9.70923e-09
-5.05667e-09
-1.11428e-09
-9.46795e-09
5.63373e-09
2.63918e-08
7.0608e-09
-4.18019e-09
-3.58946e-08
-3.02918e-08
-8.2309e-09
-1.04742e-09
3.46194e-10
9.378e-11
5.12511e-10
4.5757e-10
4.63613e-10
5.17633e-10
1.01206e-10
-6.60864e-10
-7.59095e-10
-2.16794e-10
9.96439e-11
-1.08131e-10
6.34683e-11
7.32373e-10
-9.89359e-11
-8.07217e-11
-1.41893e-10
1.07062e-10
2.25687e-10
3.1782e-11
2.45189e-10
6.02726e-10
-2.14763e-09
-1.28436e-09
8.71934e-09
1.98536e-09
-2.60459e-09
-1.05417e-09
-1.38306e-08
-9.89373e-09
-1.87342e-09
-1.11672e-08
4.50823e-09
2.52418e-08
1.29732e-08
-7.7584e-09
-4.17708e-08
-2.83099e-08
-6.73007e-09
-1.60115e-09
3.27601e-10
-3.14702e-10
-6.91648e-10
-1.47668e-10
-1.25975e-10
6.97792e-10
1.43251e-09
3.77089e-10
-8.00302e-10
-5.334e-10
6.78451e-11
2.48707e-10
4.11697e-10
3.84463e-10
3.47172e-10
4.71443e-11
-5.55409e-10
-3.37774e-10
1.36539e-10
4.18054e-12
4.68792e-10
1.48849e-09
-1.48138e-09
-4.13773e-09
4.76949e-09
1.56574e-09
-1.05471e-10
8.10292e-11
-1.73092e-08
-1.4293e-08
-2.69884e-09
-1.11153e-08
1.10861e-08
3.41499e-08
1.84102e-08
-1.54998e-08
-4.08569e-08
-1.40504e-08
-3.32641e-09
-2.0425e-09
3.3882e-10
-2.39638e-10
-6.17411e-10
-2.17199e-10
-7.66786e-11
3.42466e-10
1.85096e-09
1.8093e-09
8.72634e-11
-6.46391e-10
-7.62153e-11
1.09787e-10
4.07913e-10
2.33057e-10
1.61052e-10
-4.83163e-10
-1.4233e-09
-7.61967e-10
-1.20384e-10
3.49041e-12
9.03844e-10
2.26442e-09
-3.76816e-10
-4.00794e-09
6.33026e-12
-1.52367e-10
2.98529e-09
-9.17502e-10
-1.63956e-08
-1.36585e-08
-2.84766e-09
-1.00125e-08
9.48382e-09
4.99489e-08
2.23404e-08
-2.32309e-08
-2.40128e-08
8.21438e-09
-1.14413e-09
-1.9608e-09
2.852e-10
-2.93345e-10
-3.58019e-10
7.19148e-12
9.47609e-11
4.07746e-10
1.42722e-09
1.69087e-09
7.30825e-10
-1.8433e-10
-1.8614e-10
4.73853e-11
1.91025e-10
6.60827e-11
-4.21693e-10
-1.56635e-09
-1.58876e-09
-4.50602e-10
-2.71982e-10
-1.16453e-11
4.21022e-10
3.02684e-09
9.16957e-10
-2.03705e-09
1.16889e-09
1.09615e-09
4.15058e-09
-4.88456e-10
-9.00329e-09
-1.01211e-08
-3.13699e-09
-7.02338e-09
-1.1909e-08
4.58005e-08
2.32948e-08
-2.00363e-08
2.20744e-09
2.14935e-08
2.03961e-10
-1.1307e-09
1.16076e-10
-3.14495e-10
-1.32571e-10
1.84683e-10
1.23434e-10
9.83392e-10
1.8656e-09
1.09768e-09
3.95597e-10
9.89358e-11
-8.04817e-11
4.81771e-11
-3.83074e-10
-2.73111e-10
-3.64793e-10
-1.11954e-09
-3.16958e-10
5.78835e-11
-1.4722e-10
6.22862e-13
-1.84267e-10
1.78237e-09
3.92826e-09
4.035e-10
3.54569e-09
4.64756e-09
2.01881e-09
1.70137e-09
-1.42731e-09
-6.74885e-09
-4.00607e-09
-4.23743e-09
-3.103e-08
1.30779e-08
1.94226e-08
-7.91775e-09
2.01604e-08
2.25524e-08
1.65651e-09
-3.49282e-10
-5.71236e-11
-2.01328e-10
7.46528e-11
2.3098e-10
-1.78112e-12
1.48554e-09
3.43748e-09
1.68063e-09
6.93557e-11
6.65487e-11
2.45761e-11
-2.324e-10
-1.86062e-09
-6.04116e-10
8.36319e-11
1.43281e-09
1.62658e-09
2.7961e-10
1.1125e-10
4.58901e-11
-7.81275e-11
5.87908e-10
5.27525e-09
7.10449e-09
7.02802e-09
7.41169e-09
-1.81803e-09
-8.36908e-10
3.45254e-09
-2.27726e-09
-5.29196e-09
-2.50898e-09
-3.10702e-08
-3.04049e-08
8.39595e-09
-7.58001e-10
2.5474e-08
1.91336e-08
2.55826e-09
-3.36104e-11
-1.12838e-10
-1.09306e-11
1.29494e-10
-1.20307e-10
-3.38892e-10
1.25992e-09
5.03783e-09
3.20334e-09
3.08875e-10
3.45089e-11
-2.57452e-11
-3.67046e-10
-1.96238e-09
-4.6514e-10
-8.79751e-11
2.22864e-09
2.3813e-09
8.73952e-10
5.39479e-10
1.87811e-10
-5.03633e-11
1.7842e-10
2.60062e-09
1.03764e-08
1.6344e-08
1.43055e-08
-3.10903e-09
-4.20525e-09
3.78859e-09
-5.16841e-09
-7.46287e-09
-2.13975e-09
-1.74798e-08
-4.21615e-08
-3.36516e-09
-7.98772e-11
1.80616e-08
1.1056e-08
1.65549e-09
-1.61417e-11
-7.51028e-11
1.15307e-10
1.96073e-10
-5.04279e-10
-6.56158e-10
6.19754e-10
5.13261e-09
5.10431e-09
9.52001e-10
4.31425e-11
-7.59589e-11
-4.16431e-10
-1.18165e-09
1.05498e-09
-1.4579e-10
-3.23079e-10
8.76919e-10
5.76718e-10
2.26861e-10
-2.10584e-11
4.10792e-11
1.32096e-11
3.64279e-11
1.06127e-09
1.48453e-08
2.46349e-08
2.65443e-09
-2.85038e-09
-6.67584e-09
-1.35473e-08
-7.64977e-09
-3.31679e-09
-2.84268e-09
-1.7671e-08
-4.43863e-09
1.0333e-09
4.13072e-09
1.95025e-09
4.5034e-10
4.33337e-10
9.53216e-11
-1.06935e-11
4.46375e-10
2.55212e-10
-4.96494e-10
9.10027e-10
3.84694e-09
6.21547e-09
1.97971e-09
1.11425e-10
-2.72035e-11
-3.82259e-10
-1.01827e-09
1.30933e-09
7.84843e-10
-1.03044e-09
-8.96671e-10
-3.78703e-11
1.14066e-10
-2.70847e-10
2.45049e-11
4.02674e-11
-4.51501e-10
-6.72373e-09
-6.55011e-09
1.70026e-08
1.03543e-08
4.73011e-10
-8.73084e-09
-7.08271e-09
-4.84066e-09
-1.67502e-09
3.05236e-09
-1.55256e-09
-1.46755e-09
7.39805e-10
-1.1996e-09
-1.53245e-09
2.17646e-09
1.95249e-09
1.61012e-10
-2.09582e-10
3.87318e-10
7.26156e-10
5.71311e-11
1.75904e-09
2.86382e-09
4.34953e-09
2.62187e-09
7.57609e-11
8.85751e-11
-2.05317e-11
-5.39351e-10
4.45149e-10
1.45298e-09
-2.09918e-10
-9.1626e-10
-1.44242e-10
2.36208e-10
-8.50888e-11
4.30122e-10
8.43455e-11
-2.69758e-10
-5.17519e-09
-1.85966e-08
-5.19903e-09
8.86518e-09
1.84088e-09
7.87825e-09
7.41247e-09
-1.96855e-09
-1.51774e-10
2.60766e-09
-1.84461e-09
-1.98364e-09
5.22974e-11
1.43434e-10
2.94807e-09
4.43513e-09
2.2662e-09
2.74944e-10
-1.78397e-09
-2.75479e-09
-2.51905e-10
-1.01103e-09
1.55985e-09
3.06866e-09
-1.64628e-09
-8.22012e-10
-4.46638e-10
-9.37682e-12
3.66856e-10
2.26628e-10
-1.28982e-10
7.64736e-10
1.09889e-10
-5.11763e-10
-1.49686e-09
-2.82207e-11
3.39957e-10
2.26789e-09
1.94113e-09
7.56718e-10
-1.28138e-09
-1.16047e-08
-9.87075e-09
3.86018e-09
4.20054e-09
1.60685e-08
7.33572e-09
-1.06855e-09
9.55106e-11
-5.08457e-10
-3.78967e-09
-1.92775e-09
8.37794e-10
1.83385e-09
4.86401e-09
2.6976e-09
1.38331e-10
-2.27509e-09
-4.11035e-09
-2.7164e-09
1.70918e-09
-1.24423e-09
-4.24123e-09
1.99104e-09
-4.89498e-09
-7.89631e-09
-2.45854e-09
-3.56542e-10
3.03713e-10
2.37523e-10
2.14262e-10
2.56237e-10
-6.44338e-10
-3.28869e-09
-6.4505e-09
-2.33236e-12
2.11112e-09
4.84454e-09
1.07207e-08
6.29376e-09
2.27806e-09
-3.2335e-09
-2.14443e-09
-1.83378e-11
3.73582e-09
9.7734e-09
1.21159e-09
-1.47102e-09
-7.19123e-10
-2.64186e-09
-1.9973e-09
3.24682e-10
-3.39098e-10
1.22841e-09
1.66951e-09
1.41815e-10
-2.22486e-10
8.70495e-10
5.13714e-10
-1.12505e-09
9.93405e-10
-1.17672e-09
-1.2059e-08
-4.38039e-09
-9.82309e-10
-6.77553e-09
-4.48644e-09
-1.22132e-09
-2.25079e-10
1.18022e-10
7.86773e-10
-1.71292e-10
-1.26581e-09
-3.38893e-09
-7.1305e-09
-1.85271e-09
1.13676e-09
2.13908e-09
1.5678e-08
1.47942e-08
4.49037e-09
6.29299e-10
-1.60868e-10
-9.8322e-10
6.69146e-10
1.94549e-09
-4.75457e-10
-1.45436e-09
-4.86179e-10
-1.59303e-09
-4.80375e-10
1.16263e-09
1.01727e-10
3.06451e-10
1.71995e-10
1.16482e-10
7.63965e-10
2.14129e-09
2.09778e-09
-1.78904e-10
-7.36265e-10
-4.3848e-09
-1.11779e-08
-7.69163e-09
-5.08059e-10
-2.24805e-09
-2.15432e-09
-5.19517e-10
-1.01416e-10
-1.3942e-10
-1.75719e-10
2.10512e-11
-2.74138e-10
-1.50259e-10
1.67559e-09
1.62546e-09
-1.78189e-09
-4.13017e-09
3.82676e-09
1.09349e-08
6.06872e-09
3.79494e-10
7.21408e-10
1.1667e-09
4.66276e-10
8.27857e-10
7.57395e-10
-3.51804e-10
-1.69199e-10
-2.07864e-10
-3.20753e-10
8.14455e-10
5.39316e-10
1.20856e-10
-5.21183e-10
-7.6354e-10
-2.9003e-11
8.49678e-10
1.09311e-09
-3.34977e-11
-8.3609e-10
-5.36628e-09
-5.59755e-09
3.63699e-09
2.15845e-09
-3.03923e-10
5.09496e-10
9.82253e-11
-3.76571e-10
-2.53019e-10
-5.30249e-10
-1.61177e-10
3.03968e-10
1.55079e-09
4.32067e-09
1.52934e-09
-2.67197e-09
-8.66628e-09
-1.41365e-08
-4.92539e-09
3.25245e-09
-1.10997e-10
7.82528e-10
1.53547e-09
3.45974e-10
2.9377e-10
1.14025e-09
1.50146e-09
7.11664e-10
-3.39637e-11
-8.56895e-10
1.79673e-10
9.67073e-10
-7.77561e-10
-1.70136e-09
-1.06651e-09
-4.84915e-10
4.322e-10
1.3974e-09
7.37178e-10
-6.16328e-10
-3.36618e-09
-9.35177e-09
-1.43069e-10
5.56728e-09
6.56717e-10
1.50436e-09
7.59789e-10
-5.73625e-10
-8.40221e-11
6.02857e-11
-4.66871e-11
-4.53947e-10
-1.43219e-09
-1.06011e-09
8.20851e-10
-9.45205e-10
-6.92598e-09
-1.41601e-08
-7.44195e-09
1.90667e-09
1.3427e-10
-4.66297e-10
-3.66391e-10
4.62545e-10
7.59904e-10
6.54669e-10
6.73365e-10
3.19598e-10
-1.00394e-10
-6.62198e-10
-7.15623e-10
-6.61824e-10
-6.35037e-10
5.80447e-10
5.71341e-10
6.99029e-11
1.12927e-09
1.11204e-09
1.98712e-10
7.25255e-11
-9.37297e-10
-5.75541e-09
-6.68723e-09
-7.8658e-10
-2.96238e-10
7.97227e-10
1.17874e-09
2.42875e-10
1.41559e-10
8.38198e-11
6.01931e-11
-3.52804e-10
-5.96754e-10
5.85395e-11
8.0111e-10
-2.47573e-09
-6.07581e-09
-4.27721e-09
-1.29297e-09
1.55197e-09
7.01657e-10
-4.45094e-10
-7.7991e-10
1.15467e-11
7.64721e-10
4.53657e-10
-8.51477e-11
-1.74677e-10
-6.63008e-10
-1.50924e-09
-9.85402e-10
6.82637e-10
1.39569e-09
8.62928e-10
5.61823e-10
1.09757e-09
1.41723e-09
6.37213e-10
-2.73278e-10
6.81355e-10
-8.00867e-10
-4.49496e-09
-5.64772e-09
-3.16376e-09
-4.65918e-10
3.1568e-10
6.94667e-10
6.6471e-10
-2.6473e-10
-1.34725e-10
1.84193e-11
8.67475e-10
1.70866e-09
1.01876e-09
-6.88782e-10
-1.40205e-09
-3.78864e-09
-3.47947e-09
1.64334e-09
2.12444e-09
5.22788e-10
-9.11573e-11
-4.0967e-10
-9.74059e-10
-7.45735e-10
-1.55759e-10
-1.36461e-10
-1.93506e-10
-6.08858e-10
-5.84657e-10
8.61371e-10
1.43471e-09
1.25679e-09
1.01845e-09
5.74836e-10
2.38609e-10
1.39352e-09
1.06668e-09
-1.26704e-09
-1.35459e-09
9.3192e-10
6.27093e-10
-9.55162e-10
1.59624e-10
5.41909e-10
4.87726e-10
6.27663e-10
-9.67133e-11
1.53253e-12
2.61965e-12
7.23679e-13
-5.66402e-14
-2.92201e-12
-4.48905e-12
-2.46624e-12
-1.30471e-12
-4.74331e-13
-5.00865e-13
-4.1551e-13
-2.31989e-12
-1.16777e-11
-2.32988e-11
-3.97274e-11
-7.70194e-11
-1.13392e-10
-9.10375e-11
-2.62131e-11
1.48566e-12
3.64277e-12
4.10996e-14
2.43805e-13
3.29147e-12
4.32536e-12
2.69042e-12
1.58226e-12
1.72629e-12
-2.54715e-12
-3.93892e-12
-2.56808e-11
-2.41596e-11
-4.11609e-12
2.60181e-12
1.17782e-12
-6.33538e-13
-9.9804e-12
-1.98428e-13
4.73807e-13
1.31102e-12
7.40319e-12
1.68231e-11
3.00444e-12
2.50075e-12
-4.50064e-11
-1.13396e-10
-5.13195e-11
-9.35321e-12
-1.7954e-12
2.67482e-12
-3.49139e-12
1.44373e-11
1.42264e-11
-8.46939e-11
-2.61978e-10
-6.29605e-10
-1.04806e-09
-1.04926e-09
-4.75519e-10
-8.27145e-11
6.01169e-11
9.1778e-11
1.51615e-11
-2.29685e-11
-9.72219e-11
-9.97939e-11
-5.41245e-12
-2.8419e-12
-1.89897e-12
7.73416e-11
-5.40245e-11
-2.42234e-10
-1.67896e-10
-1.67917e-11
3.17904e-11
-2.22287e-11
-3.2482e-12
2.2536e-11
-3.47636e-12
-6.45001e-12
8.65166e-11
7.18578e-11
3.31139e-12
2.82754e-11
-1.12074e-10
-4.12072e-10
-2.50861e-10
-5.01947e-11
2.19979e-11
1.06478e-10
1.73299e-11
-1.88467e-11
1.15787e-10
-2.63388e-13
-3.28283e-10
-9.05681e-10
-1.53287e-09
-1.751e-09
-1.05245e-09
-2.69769e-10
9.27907e-10
1.18556e-09
1.85058e-10
-2.06193e-10
-6.25575e-10
-5.09435e-10
-9.45028e-11
-1.50866e-11
3.85962e-11
1.96485e-10
8.91029e-11
-3.23101e-10
-3.72372e-10
-1.39456e-10
1.05424e-10
1.78084e-10
2.33553e-11
-3.42259e-11
-7.42729e-12
2.2292e-11
1.74358e-10
3.57362e-10
3.06034e-11
2.89475e-11
-3.36115e-10
-9.09075e-10
-6.17352e-10
-7.41942e-11
9.13188e-11
5.94357e-10
2.41434e-10
-1.18067e-10
1.51632e-10
-2.29715e-11
-9.18021e-10
-1.82986e-09
-2.09318e-09
-1.9624e-09
-8.33231e-10
-9.22097e-11
2.92878e-09
6.24287e-09
2.19554e-09
-6.67235e-10
-2.08171e-09
-1.41719e-09
-1.25335e-10
-1.68471e-11
8.60401e-11
4.11227e-11
-2.70827e-11
-2.16832e-10
-1.66608e-10
-4.1203e-11
1.77516e-10
5.93366e-10
2.86582e-10
2.86959e-11
-1.03744e-10
-4.96402e-12
-1.75764e-10
1.06889e-09
2.73433e-10
6.64561e-11
-6.34896e-10
-1.44014e-09
-1.10209e-09
-1.52997e-10
1.21092e-11
1.57101e-09
1.40308e-09
-1.91003e-10
1.75495e-11
3.67064e-10
-1.68975e-09
-3.74141e-09
-3.98348e-09
-3.98162e-09
-1.85677e-09
-5.3674e-10
3.23626e-09
1.73043e-08
1.02983e-08
-9.68205e-10
-5.34621e-09
-4.41381e-09
-7.2251e-10
-7.2469e-11
2.84001e-10
8.02979e-11
-1.33066e-10
-1.48838e-10
-5.16897e-11
-6.06491e-11
-6.67611e-11
9.28656e-10
1.09541e-09
3.22378e-10
-2.78311e-10
-1.46673e-11
-8.76609e-10
1.12196e-09
8.52841e-10
1.92301e-10
-6.34603e-10
-1.81301e-09
-1.30101e-09
-2.59397e-10
-2.05247e-10
1.62808e-09
3.93878e-09
4.70773e-10
-8.51452e-10
1.29959e-09
-1.61363e-09
-5.54766e-09
-6.0074e-09
-6.56503e-09
-3.65744e-09
-9.57047e-10
1.04544e-09
3.2356e-08
2.66975e-08
6.29731e-10
-1.00847e-08
-1.01518e-08
-2.81871e-09
-2.36606e-10
2.20514e-10
1.54896e-10
-1.05079e-10
-8.31997e-11
-5.90846e-11
1.72313e-11
1.26272e-13
7.53844e-10
2.08491e-09
6.70048e-10
-2.31174e-10
-1.90606e-10
-8.4171e-10
-1.91687e-09
1.40981e-09
2.8705e-10
-3.84624e-10
-2.09675e-09
-1.13847e-09
-3.52306e-10
-4.87844e-10
1.90567e-10
5.14449e-09
2.89379e-09
-2.36912e-09
1.75766e-09
-7.91268e-10
-6.69788e-09
-8.07464e-09
-9.76318e-09
-5.06545e-09
-1.10079e-09
-2.79412e-09
4.84295e-08
4.92833e-08
5.54019e-09
-1.42859e-08
-1.72317e-08
-6.33202e-09
-5.99887e-10
5.37802e-11
7.75579e-11
-1.29498e-10
-3.79356e-11
3.66416e-11
5.73094e-10
1.16998e-09
8.60781e-10
2.33875e-09
1.53198e-09
-2.02647e-10
-4.16438e-10
-3.72423e-10
-5.48153e-09
1.35046e-10
8.97814e-10
-8.47338e-11
-3.73817e-09
-1.80071e-09
-6.3564e-10
-5.9874e-10
-7.68896e-10
3.24832e-09
4.44552e-09
-3.52428e-09
1.99567e-09
4.97267e-10
-7.10501e-09
-1.02532e-08
-1.44144e-08
-5.7486e-09
-9.61943e-10
-6.99261e-09
6.09275e-08
7.03738e-08
1.38751e-08
-1.74263e-08
-2.33573e-08
-9.37744e-09
-1.13586e-09
-6.82387e-11
3.04785e-11
-1.85939e-10
-1.74379e-10
3.58701e-10
1.21184e-09
2.58248e-09
2.06841e-09
2.04097e-09
2.46591e-09
-1.49751e-10
-1.4405e-10
-3.40311e-11
-4.36453e-09
-3.26099e-09
2.21287e-09
-6.58012e-10
-7.55009e-09
-4.19839e-09
-1.32508e-09
3.27455e-10
-1.99766e-10
9.07301e-10
2.99374e-09
-3.01575e-09
2.99481e-09
2.32915e-09
-4.60758e-09
-1.05391e-08
-1.74644e-08
-4.10192e-09
-1.3602e-09
-1.0887e-08
6.43764e-08
8.06617e-08
2.25329e-08
-1.98705e-08
-2.49071e-08
-9.39152e-09
-1.48991e-09
-2.74834e-10
-1.14458e-10
-2.97953e-10
-3.40763e-10
5.66012e-10
2.07792e-09
3.28619e-09
2.30699e-09
1.54998e-09
2.34904e-09
6.28553e-10
4.93165e-11
2.09409e-10
-1.69775e-09
-3.34624e-09
2.77153e-09
-4.45409e-09
-1.14992e-08
-7.61007e-09
-1.71843e-09
8.41848e-10
2.71678e-09
2.44619e-09
1.22901e-09
-9.63634e-10
4.34017e-09
4.2086e-09
-5.36066e-10
-1.2109e-08
-1.89103e-08
-9.65105e-11
-3.2326e-09
-1.61059e-08
4.68754e-08
7.45253e-08
2.67737e-08
-1.994e-08
-1.71534e-08
-3.49786e-09
-1.32392e-09
-6.71396e-10
-3.9738e-10
-4.40958e-10
-3.82197e-10
5.03577e-10
3.11018e-09
5.07954e-09
2.52741e-09
1.97044e-10
1.01562e-09
1.16867e-09
2.37009e-10
5.56807e-10
-1.46204e-11
-9.43904e-10
-9.51125e-10
-8.34285e-09
-1.0685e-08
-9.81726e-09
-1.81257e-09
-1.69786e-09
-3.05688e-10
7.54401e-09
6.15292e-09
1.79908e-10
3.67483e-09
5.15097e-09
1.47256e-09
-1.60996e-08
-1.64372e-08
2.98683e-09
-5.72005e-09
-2.1235e-08
7.54613e-09
5.32286e-08
2.55727e-08
-1.44495e-08
-3.4396e-09
2.84861e-09
-1.49795e-09
-8.88363e-10
-3.36155e-10
-1.16287e-10
-3.27286e-10
5.07994e-10
4.26659e-09
8.24095e-09
4.54283e-09
-9.64062e-11
-1.78557e-10
5.29525e-10
4.6132e-10
2.10599e-09
1.26814e-09
-1.02748e-09
-7.40255e-09
-5.87425e-09
-4.55785e-09
-7.58993e-09
-1.88426e-09
-3.06006e-09
-7.60169e-09
5.1104e-09
1.76869e-08
5.12481e-09
3.19716e-09
5.04673e-09
1.65485e-09
-1.19077e-08
-4.46915e-09
3.60012e-09
-7.24244e-09
-2.76577e-08
-2.94722e-08
2.45721e-08
2.30399e-08
-6.79755e-09
4.52066e-09
4.28716e-09
-1.45267e-09
-8.41098e-10
-3.12319e-10
1.80788e-10
-4.03506e-10
3.53263e-10
5.5334e-09
1.19052e-08
8.1555e-09
1.17187e-09
-2.11043e-10
-8.67087e-11
-6.55731e-10
-2.77531e-11
1.83707e-09
-2.66334e-09
-6.88191e-09
2.13068e-09
9.38789e-10
-2.97706e-09
-7.87209e-10
-1.44686e-09
-8.73093e-09
-7.46277e-09
2.41968e-08
1.60778e-08
4.50849e-09
5.42765e-09
3.56983e-09
3.6877e-09
8.89912e-09
2.89188e-09
-6.97012e-09
-3.55596e-08
-5.47712e-08
-4.52186e-09
1.83751e-08
-2.12904e-09
1.03858e-08
4.71669e-09
-1.15684e-09
-1.14836e-09
-4.51352e-10
5.40947e-10
-1.25639e-10
-2.74126e-10
5.55182e-09
1.4491e-08
1.20493e-08
2.59702e-09
1.60972e-10
-1.75633e-10
-2.11369e-09
-3.55973e-09
4.95027e-10
-2.54605e-09
-3.3729e-09
7.38494e-09
4.58856e-09
2.04178e-10
-6.14589e-11
-1.42169e-10
-4.85291e-09
-1.79642e-08
9.23138e-09
2.57003e-08
7.18522e-09
6.11008e-09
9.42943e-09
1.67864e-08
1.05357e-08
1.18785e-09
-4.15002e-09
-3.1904e-08
-5.91244e-08
-1.90227e-08
1.00198e-08
2.30009e-09
1.26713e-08
2.22865e-09
-2.56848e-09
-1.27144e-09
-1.08944e-10
5.51679e-10
4.23343e-10
-3.30961e-10
3.41172e-09
1.24921e-08
1.54285e-08
4.54383e-09
-1.9635e-12
-1.34885e-10
-1.87867e-09
-2.58377e-09
-3.17886e-10
-3.24136e-09
-6.25308e-11
8.30364e-09
4.56454e-09
6.50204e-10
-3.9399e-11
6.12042e-12
-1.97882e-09
-1.77631e-08
-1.35248e-08
2.11659e-08
1.04403e-08
6.22176e-09
1.37142e-08
1.43769e-08
1.17249e-09
-1.33357e-09
-1.85234e-09
-1.68684e-08
-3.63843e-08
-1.3633e-08
6.18234e-09
3.31037e-09
3.31657e-09
-4.01888e-09
-3.03978e-09
-1.04336e-09
-6.73595e-10
4.23395e-10
1.14727e-09
1.00615e-10
1.35499e-09
6.42781e-09
1.38544e-08
7.53356e-09
4.01946e-10
-2.11064e-10
-9.81737e-10
-4.02608e-10
1.0454e-10
-3.1638e-09
2.17736e-09
4.00125e-09
1.58556e-09
4.43309e-10
-6.7113e-11
7.78657e-11
-1.23859e-09
-1.33742e-08
-2.15187e-08
9.23889e-09
1.1775e-08
5.33199e-09
1.09284e-08
4.21221e-09
-3.53821e-09
-2.18172e-09
-1.09624e-09
-4.4147e-09
-1.23713e-08
-8.44698e-09
2.78131e-09
4.75599e-10
-3.1608e-09
-1.48829e-10
1.58022e-09
-6.80537e-10
-9.8493e-10
3.80137e-10
-1.68325e-10
-4.88973e-11
9.79143e-10
1.81861e-09
6.4728e-09
8.65504e-09
1.88933e-09
-8.22455e-11
-5.3083e-10
-1.53538e-10
-1.58211e-10
-1.53934e-09
1.399e-09
1.67518e-09
9.5425e-10
6.20517e-10
5.00781e-12
1.75731e-10
-9.4715e-11
-8.6647e-09
-1.96049e-08
-1.93945e-09
1.07103e-08
4.65628e-09
6.53749e-09
3.74386e-09
-6.20905e-10
-8.3998e-10
-7.74041e-10
-5.43256e-10
-5.6066e-09
-7.71278e-09
1.32003e-09
2.34925e-09
3.13363e-09
6.88642e-09
4.20956e-09
1.7293e-09
-6.888e-10
-1.38799e-09
-1.87211e-09
-5.18706e-09
3.17904e-09
2.27305e-09
-7.56061e-10
3.85479e-09
3.03445e-09
1.27524e-10
-1.3868e-10
-3.47698e-10
-2.15958e-10
-6.87712e-10
1.4972e-09
1.9066e-09
-3.78225e-10
-1.95195e-10
2.11888e-10
1.28675e-09
2.49934e-09
-8.63484e-10
-9.698e-09
-5.7825e-09
6.48043e-09
2.68937e-09
5.38733e-09
4.09424e-09
2.63237e-10
5.91244e-10
-3.27244e-10
4.63422e-10
-4.05471e-09
-5.89497e-09
2.73549e-09
4.0873e-09
7.37911e-09
8.35546e-09
4.46544e-09
-1.28393e-09
-5.33046e-09
-4.24578e-10
1.67279e-09
-1.30509e-08
-4.25655e-09
6.06005e-09
-5.26882e-10
-1.12504e-09
2.18389e-09
6.95941e-10
-3.66545e-10
-1.77564e-10
5.08779e-10
8.74833e-10
2.2116e-09
-1.4646e-09
-5.96356e-09
-2.9705e-09
8.66571e-11
4.45169e-09
1.34258e-08
1.23401e-08
1.02338e-09
-1.79848e-09
1.10413e-09
-1.32602e-09
2.50422e-09
1.87618e-09
2.73959e-10
2.28413e-10
-1.89298e-10
-2.36423e-10
-7.11511e-10
-1.62588e-10
1.05546e-09
2.64841e-09
5.51811e-09
1.83456e-09
-1.24003e-09
-2.51063e-09
-2.26741e-09
1.4434e-09
-8.56982e-10
-1.86627e-08
-2.84566e-08
-1.66271e-09
3.24188e-09
-7.01759e-10
-4.2015e-10
1.78678e-10
-2.82077e-10
2.37996e-10
1.76298e-11
4.16842e-10
8.37528e-10
-3.64253e-10
-2.40351e-09
-3.13308e-09
-1.32475e-09
2.20165e-09
1.26235e-08
2.56812e-08
1.29715e-08
1.51176e-09
-9.98551e-10
-2.74173e-09
1.71725e-10
7.39345e-10
-9.72156e-11
-1.83428e-10
3.26877e-11
-1.50695e-10
3.13265e-11
1.80132e-10
2.49035e-10
8.16279e-10
4.84457e-10
9.19682e-10
1.1289e-09
1.62715e-10
5.92715e-11
1.60667e-09
-2.31413e-09
-1.66379e-08
-3.25573e-08
-1.83722e-08
2.20308e-09
8.56156e-10
-7.84394e-10
-4.5117e-10
2.73509e-10
4.28724e-10
-7.71344e-10
-4.8614e-10
6.74777e-10
3.40366e-09
4.96649e-09
2.33568e-10
-1.52312e-09
-2.12312e-09
-1.64453e-09
1.47684e-08
1.86602e-08
5.05059e-09
-2.07681e-10
8.22146e-10
3.32513e-11
4.95783e-11
1.93604e-10
9.89278e-11
1.53337e-10
1.61556e-10
1.67569e-10
4.03601e-11
2.41268e-11
-4.43111e-10
-2.42204e-09
-2.81796e-09
-6.62308e-10
1.29328e-09
5.21418e-10
-6.99118e-10
-2.80107e-09
-8.39516e-09
-4.59197e-09
-5.37906e-09
-3.62958e-10
1.95147e-10
-3.82647e-10
1.9668e-09
2.0777e-09
-1.24256e-10
-4.96341e-10
-9.90001e-11
3.36677e-10
2.18753e-09
4.07595e-09
1.66127e-09
-6.93074e-10
-3.35744e-09
-1.30839e-08
-9.49942e-09
1.00735e-08
5.56084e-09
-6.24338e-10
2.45282e-09
1.11098e-09
3.72736e-10
5.95743e-10
5.59971e-10
2.7791e-11
-1.44456e-10
8.69112e-11
3.99529e-10
-1.66393e-10
-6.36774e-10
2.09918e-10
2.68544e-10
-4.52341e-10
-1.55537e-10
-7.99836e-11
-6.90198e-10
-8.05681e-10
-7.48048e-09
-3.31094e-09
9.92558e-09
4.70346e-09
3.50298e-10
4.72679e-10
6.88453e-10
4.26551e-10
1.62784e-10
-2.00573e-10
-2.662e-10
-9.82959e-11
-1.82549e-10
4.46097e-10
9.05779e-10
-2.64143e-10
-3.23706e-09
-1.40405e-08
-1.83879e-08
6.97441e-10
4.75735e-09
8.01007e-10
1.61544e-09
2.46058e-10
-4.34052e-10
-2.71619e-10
1.0814e-11
-7.18647e-11
-3.37708e-10
-5.28415e-10
-3.14564e-10
-3.91578e-10
6.07613e-10
3.2847e-09
3.60098e-09
1.4923e-09
5.29999e-10
1.85846e-10
-5.02119e-10
-3.27018e-10
-5.95093e-09
-1.18034e-08
-1.48343e-09
1.15954e-09
8.36169e-10
2.16486e-09
1.05137e-09
9.35684e-11
2.95724e-11
8.50039e-11
-2.20885e-11
-8.07097e-12
-3.80828e-10
-7.68873e-10
-2.4059e-10
-1.48142e-09
-2.54692e-09
-3.34405e-09
-7.90546e-09
-2.49887e-09
1.92809e-09
9.89931e-11
-3.50532e-10
-7.54274e-11
-1.82698e-10
-2.4447e-10
1.31798e-10
2.75588e-10
-3.8443e-11
-1.50964e-10
2.91392e-10
7.45295e-10
1.05371e-09
7.07139e-10
1.44514e-10
3.56396e-10
1.09873e-09
1.1797e-09
-2.24986e-10
-6.38494e-10
-4.16958e-09
-9.07707e-09
-5.60255e-09
-8.89633e-10
5.51202e-10
8.72213e-10
1.93577e-10
-1.98031e-11
-8.57688e-10
-1.83071e-10
-4.25496e-12
3.40542e-10
4.8601e-10
-1.22862e-10
-2.73344e-10
-6.71631e-10
-1.69135e-09
-6.99225e-10
-1.97332e-11
-2.40265e-10
-8.12134e-11
1.54864e-11
1.25506e-10
2.29988e-10
-1.80884e-10
-1.63341e-10
-5.31676e-10
-1.47613e-09
-2.54041e-10
1.43301e-09
1.43497e-09
1.19554e-09
4.21653e-10
1.62477e-10
-4.65386e-11
-7.09342e-10
8.94178e-10
1.49295e-09
-5.87047e-10
-3.17829e-10
3.95793e-10
-4.15627e-09
-4.82683e-09
-3.65979e-10
1.74957e-09
1.69405e-09
4.79677e-10
-8.69442e-10
2.0981e-11
2.16241e-11
-7.3179e-13
-1.39785e-12
-2.35543e-12
-7.00702e-13
-1.17248e-13
7.58373e-14
1.53844e-13
6.18393e-14
-1.22672e-12
-3.48008e-12
-3.0304e-12
-3.05021e-12
-1.1408e-11
-2.73899e-11
-4.44524e-11
-6.64814e-11
-8.38488e-11
-1.91421e-11
4.02846e-12
1.78696e-11
2.63921e-12
7.52269e-12
2.85694e-11
3.49475e-11
1.39675e-11
-1.66643e-12
-2.10302e-12
-1.47641e-11
-3.2581e-11
-1.98007e-11
-2.3134e-12
1.19124e-12
6.57224e-13
-1.20223e-13
-9.39562e-12
-1.01611e-11
-2.82236e-12
-6.4223e-13
1.29189e-10
1.75367e-10
-1.39526e-11
3.2659e-12
-6.28652e-12
-6.47974e-12
-6.59861e-13
2.38947e-12
2.07463e-12
4.53073e-12
1.18812e-11
2.46661e-12
-1.93461e-11
-1.92651e-11
-6.68294e-11
-1.99047e-10
-2.95049e-10
-3.71478e-10
-6.87212e-10
-4.42308e-10
-5.98778e-11
2.14499e-10
1.05907e-10
6.41385e-11
9.21992e-11
5.94947e-11
-1.36124e-11
-3.29237e-11
4.81117e-11
2.723e-11
-1.71591e-10
-2.18546e-10
-9.61617e-11
-1.31967e-11
5.42935e-12
-1.68901e-11
-8.93426e-12
-1.80003e-11
4.19341e-12
-1.03246e-11
6.89002e-10
8.95857e-10
-3.11297e-11
-5.57609e-12
-3.46744e-11
-2.15027e-11
6.7236e-12
1.19483e-11
6.3161e-12
-1.06448e-11
-6.43128e-13
3.6438e-11
1.38476e-11
3.96201e-12
-1.03304e-10
-3.3345e-10
-4.75089e-10
-4.56598e-10
-8.48927e-10
-8.82847e-10
-1.11624e-10
1.27729e-09
6.00058e-10
1.23748e-10
6.07848e-11
1.13553e-12
-5.08634e-11
-4.39762e-11
1.29824e-10
9.71243e-11
-2.97759e-10
-4.28975e-10
-2.43692e-10
-5.91576e-11
5.62632e-11
4.13847e-11
-3.97738e-11
-6.46335e-11
-1.78107e-11
3.79456e-11
1.77681e-09
2.70638e-09
1.09728e-10
-4.92355e-12
-1.08953e-10
-7.96123e-11
-5.45661e-12
4.25321e-12
2.08306e-11
-1.2424e-11
-3.75709e-11
5.45384e-11
2.53162e-11
-1.38569e-10
-3.99316e-10
-6.01736e-10
-6.06256e-10
-6.1436e-10
-7.72079e-10
-5.12679e-10
4.08277e-10
3.98107e-09
2.79653e-09
6.63886e-10
-1.83385e-10
-2.09753e-10
-4.1804e-11
-1.50121e-11
6.70187e-11
-1.32631e-10
-5.15453e-10
-4.65166e-10
-1.70845e-10
-2.83648e-11
1.71005e-10
2.84409e-10
-3.19371e-11
-1.5676e-10
-2.1375e-10
6.43093e-11
1.9283e-09
6.43316e-09
8.44692e-10
3.71959e-11
-1.52299e-10
-1.72302e-10
-5.42815e-11
-1.6942e-11
6.62804e-11
9.79728e-11
-8.35623e-11
4.61902e-11
1.33455e-10
-2.74746e-10
-7.52035e-10
-9.98144e-10
-9.22772e-10
-1.28044e-09
-1.81552e-09
-8.39329e-10
5.61621e-10
7.99202e-09
8.84824e-09
3.01887e-09
-7.38417e-10
-8.82388e-10
-6.49614e-11
-8.17926e-12
-1.5608e-12
-2.81017e-10
-6.52649e-10
-5.58108e-10
-1.97021e-10
-8.91809e-11
2.22884e-10
8.03392e-10
3.361e-10
-4.19223e-10
-5.22631e-10
4.57014e-11
-7.96294e-10
1.09694e-08
2.84226e-09
5.0334e-11
-1.28351e-10
-2.71985e-10
-1.63564e-10
-4.62275e-11
4.94995e-11
5.42112e-10
3.51515e-11
-4.24191e-11
3.64862e-10
-1.0136e-10
-5.3824e-10
-4.75888e-10
-7.23907e-10
-2.0556e-09
-3.67234e-09
-1.44991e-09
3.42937e-11
1.18254e-08
1.98814e-08
8.80369e-09
-1.14399e-09
-2.64954e-09
-2.52118e-10
7.26071e-12
4.54616e-11
-1.70446e-10
-4.23239e-10
-4.59531e-10
-2.78344e-10
-4.52898e-11
3.57134e-10
1.33033e-09
1.16393e-09
-8.05027e-10
-4.27467e-10
-8.27903e-10
-4.3337e-09
8.26222e-09
6.25455e-09
4.8093e-12
3.78556e-12
-2.83838e-10
-2.82385e-10
-7.27236e-11
-4.90335e-11
7.8618e-10
9.15079e-10
6.52479e-11
5.08355e-10
3.92712e-10
8.78095e-10
1.55775e-09
1.16449e-10
-3.22691e-09
-7.32149e-09
-2.38155e-09
-1.5237e-09
1.31062e-08
3.33361e-08
1.88786e-08
1.7274e-10
-5.11969e-09
-6.85857e-10
7.14143e-11
1.13092e-10
-1.16722e-10
-2.69469e-10
-4.48402e-10
-3.22174e-10
4.20167e-10
1.37794e-09
1.94302e-09
2.2382e-09
-3.8779e-10
-6.62126e-10
-1.89389e-09
-6.24733e-09
-5.06081e-09
8.72409e-09
3.80367e-10
7.58784e-11
-7.02037e-11
-2.59909e-10
-5.76798e-11
-2.0283e-11
2.27941e-10
1.73908e-09
1.23032e-09
5.79429e-10
7.98957e-10
2.72854e-09
3.38079e-09
6.82404e-10
-5.22055e-09
-1.34116e-08
-3.48522e-09
-4.88449e-09
1.05851e-08
4.06419e-08
2.97086e-08
3.09825e-09
-6.70328e-09
-1.22036e-09
-2.06354e-11
4.00585e-11
-3.06819e-10
-8.02906e-10
-1.04156e-09
-1.30483e-10
1.42903e-09
3.4955e-09
3.45214e-09
2.94674e-09
1.07723e-09
-1.28402e-09
-4.57039e-10
-6.24143e-09
-1.25826e-08
4.71076e-09
1.59349e-09
1.50358e-10
1.3357e-10
-1.31159e-10
-2.85039e-11
-1.82959e-10
-2.59806e-10
5.88291e-10
1.88981e-09
6.96002e-10
6.46112e-10
2.88559e-09
2.76622e-09
-1.9058e-10
-7.85523e-09
-2.00459e-08
-2.47579e-09
-9.98419e-09
4.76569e-09
3.90083e-08
3.52798e-08