/*--------------------------------*- C++ -*----------------------------------*\
| =========                 |                                                 |
| \\      /  F ield         | OpenFOAM: The Open Source CFD Toolbox           |
|  \\    /   O peration     | Version:  5.0                                   |
|   \\  /    A nd           | Web:      www.OpenFOAM.org                      |
|    \\/     M anipulation  |                                                 |
\*---------------------------------------------------------------------------*/
FoamFile
{
    version     2.0;
    format      ascii;
    class       volScalarField;
    location    "50.4676134421789371";
    object      Tdiffuv;
}
// * * * * * * * * * * * * * * * * * * * * * * * * * * * * * * * * * * * * * //

dimensions      [0 2 -3 0 0 0 0];

internalField   nonuniform List<scalar> 
60000
(
1.45022e-10
-6.30672e-12
-2.07645e-11
-2.7422e-11
-3.89542e-11
-1.74771e-12
1.02732e-12
-3.21065e-12
-1.77659e-11
-1.45839e-11
7.05607e-11
7.73493e-11
-3.197e-12
-4.09161e-12
9.32272e-12
2.15131e-11
7.32559e-11
1.32683e-10
-1.26792e-11
-2.94646e-11
2.45773e-10
3.94696e-10
1.3938e-10
5.46082e-10
4.09758e-09
7.9376e-09
5.13117e-09
8.96982e-10
1.65963e-10
8.74417e-11
3.20261e-11
6.66189e-11
1.26261e-10
2.76169e-10
2.32756e-10
-1.78655e-12
-1.08288e-11
1.99318e-12
3.22614e-11
1.68345e-10
4.33617e-10
2.90168e-10
-2.88978e-11
-7.09246e-11
-4.60674e-11
3.75884e-11
5.09634e-11
-6.35663e-11
-1.00968e-10
3.53799e-11
-9.20594e-11
-5.10086e-10
-6.00009e-10
-3.53084e-10
-3.10097e-10
-3.3085e-10
-1.51574e-10
4.77211e-10
9.62892e-10
1.04274e-09
1.09343e-09
6.40277e-10
-3.42859e-09
-5.93648e-09
-5.20578e-10
1.2683e-08
1.97379e-08
1.4217e-08
4.41385e-09
-4.26034e-10
-4.80561e-11
1.25959e-09
1.66819e-09
3.68635e-10
-3.4576e-10
-2.93811e-10
-2.92469e-10
9.4309e-11
3.57181e-10
2.57954e-10
7.4684e-10
1.35997e-11
-1.82607e-10
-6.03081e-11
-2.64024e-10
-1.94826e-10
8.49721e-11
7.21404e-12
7.53122e-11
7.75081e-10
9.90002e-10
-1.9193e-10
-1.27535e-09
-5.03923e-10
-2.14087e-10
-5.64576e-11
3.20491e-10
1.93792e-10
8.38738e-10
-7.82564e-10
-4.61061e-09
-3.60223e-10
-4.29913e-09
-5.34127e-09
-6.2561e-10
5.70455e-09
1.17712e-08
1.18756e-08
4.82979e-09
-8.50894e-10
-4.12692e-10
9.51098e-10
1.39182e-09
9.30839e-10
-1.94204e-10
-6.17253e-10
-3.64408e-10
-6.06245e-10
4.45684e-10
8.27712e-10
3.83494e-10
1.85446e-10
-2.21094e-10
-1.39188e-10
-5.64952e-10
-3.97394e-10
8.84392e-11
6.55175e-11
3.24608e-11
6.94045e-10
1.03184e-09
4.17285e-10
-8.55759e-10
-2.74835e-11
3.27987e-10
8.92969e-10
1.99706e-09
1.0997e-10
-8.94339e-11
-6.14464e-09
-2.06167e-08
-1.37247e-09
-1.23505e-09
1.98591e-09
8.05265e-09
2.68087e-09
1.30961e-09
2.53465e-09
1.55793e-09
-1.32288e-09
-1.33133e-09
3.30044e-10
4.29568e-10
-1.4524e-10
-6.52334e-10
-2.05484e-10
-2.22054e-10
-8.73514e-10
-4.19066e-10
5.8524e-10
-3.65743e-10
1.26106e-09
7.63415e-10
-1.18841e-10
-7.56382e-10
-3.85915e-10
2.96287e-10
2.52379e-10
4.06066e-11
6.12352e-10
1.46564e-09
1.10285e-09
2.25715e-10
3.2191e-10
1.36075e-09
3.16655e-09
6.86906e-09
2.40048e-09
1.75225e-09
-3.76348e-09
-4.60357e-08
-1.01997e-08
1.60083e-09
6.44157e-09
1.96631e-08
8.29679e-09
4.38228e-09
1.89907e-09
1.73835e-09
3.19393e-09
-4.87455e-10
-1.32825e-09
-2.98293e-10
-4.59492e-12
-2.29815e-10
7.19936e-10
-1.30512e-10
-9.47797e-10
-1.2393e-09
4.73394e-10
-6.30995e-10
1.55222e-10
1.43173e-09
4.0336e-10
-3.4997e-10
-3.69345e-10
2.55961e-10
3.7137e-10
3.03797e-10
4.01531e-10
1.64786e-09
2.71449e-10
4.69267e-10
1.01779e-09
3.82751e-09
7.15506e-09
1.62054e-08
7.82523e-09
4.79901e-09
9.79824e-09
-6.24316e-08
-4.40244e-08
4.47473e-09
4.48786e-09
1.41865e-08
3.23206e-09
4.21851e-09
2.09455e-09
1.22617e-09
4.84426e-09
4.66978e-09
1.19566e-09
-2.81175e-10
-1.85049e-10
1.80012e-10
9.40852e-10
1.29801e-09
-5.15656e-10
-1.50229e-09
-3.56272e-10
-9.09581e-10
-2.12392e-09
1.88328e-10
3.45638e-10
2.34284e-10
-2.86311e-10
-2.36031e-10
8.07362e-11
2.84585e-10
1.30265e-09
1.00106e-09
-4.12819e-09
-2.46123e-09
5.02481e-09
4.70531e-09
1.01736e-08
2.41031e-08
1.44851e-08
7.78362e-09
2.8707e-08
-4.24905e-08
-8.77733e-08
-2.79183e-09
-3.22622e-09
-5.97377e-09
-1.2433e-09
4.52764e-09
2.20253e-09
1.19087e-09
1.41886e-09
3.21713e-09
2.11801e-09
2.10105e-09
1.04539e-09
-4.47444e-10
7.10575e-11
1.79552e-09
1.11315e-09
-1.30431e-09
-1.75592e-09
-8.83299e-10
-3.23941e-09
-1.06639e-09
-2.01571e-11
3.72547e-10
2.21906e-11
-5.71152e-10
-2.07314e-10
-4.91e-10
1.55416e-09
3.64486e-09
-9.12484e-09
-1.48614e-08
1.1494e-08
7.24435e-10
8.65634e-09
2.76852e-08
1.92717e-08
8.46528e-09
4.1219e-08
7.46595e-09
-9.81336e-08
-3.0555e-08
-1.24841e-08
-1.85755e-08
4.63419e-09
5.98499e-09
2.61212e-09
1.65277e-09
-2.12865e-10
-4.21314e-10
-2.69678e-10
5.86235e-10
4.50698e-09
2.50799e-09
-1.44996e-09
1.55912e-10
2.05782e-09
-2.28222e-10
-3.22957e-09
-1.58865e-09
-2.00269e-09
-1.27408e-09
-4.44277e-10
5.85108e-10
8.14488e-10
-6.06918e-10
-5.55054e-11
-4.76606e-10
-8.45513e-10
9.08901e-09
-8.6056e-09
-2.979e-08
5.82601e-09
-6.59286e-09
4.86922e-09
2.54903e-08
1.82813e-08
6.40847e-09
3.59379e-08
6.23516e-08
-5.94439e-08
-6.2307e-08
-2.57917e-08
-2.24932e-08
7.95293e-09
3.33339e-09
3.13617e-09
2.02605e-09
-1.29758e-10
-1.41365e-09
-1.90957e-09
-8.69056e-10
3.99925e-09
6.38007e-09
1.33052e-09
-1.30297e-09
8.08119e-10
1.07112e-09
-3.0381e-09
-1.93028e-09
3.67532e-11
-1.27557e-09
-6.00126e-10
8.3378e-10
9.82152e-10
3.90604e-10
2.05039e-10
3.92349e-10
-2.20401e-09
1.09865e-08
1.51526e-09
-3.2126e-08
-1.15404e-08
-9.35325e-09
1.4306e-09
1.70142e-08
1.28543e-08
4.2941e-09
1.58859e-08
8.65429e-08
5.25472e-09
-7.18523e-08
-4.10442e-08
-1.67074e-08
1.8478e-09
-1.42251e-09
3.45102e-09
1.62239e-09
-4.18698e-10
-1.4448e-09
-1.91367e-09
-4.85748e-10
3.10155e-09
5.52876e-09
3.08926e-09
1.08834e-10
-9.57999e-11
5.59951e-10
-9.08067e-10
5.68566e-10
9.95591e-10
-6.2719e-10
-1.01304e-10
-8.34705e-10
-1.14022e-09
6.29282e-10
-2.58907e-11
3.81644e-10
-1.4452e-09
7.44455e-09
1.54255e-08
-2.02961e-08
-2.41285e-08
-7.25543e-09
-7.75787e-09
4.50396e-09
9.67739e-09
3.76556e-09
2.57362e-09
5.56033e-08
5.11731e-08
-5.49511e-08
-3.20322e-08
4.11389e-09
-6.4166e-09
-4.1432e-09
2.38559e-09
6.49651e-10
-7.42755e-10
-1.55276e-09
-1.6074e-09
8.88384e-10
5.17764e-09
4.76783e-09
1.81258e-09
8.06463e-10
2.63648e-10
6.8217e-12
2.57254e-10
4.12303e-09
3.27391e-09
2.69523e-10
8.98265e-10
-4.18122e-09
-3.67594e-09
8.66782e-11
7.36971e-11
1.72314e-10
-6.1422e-10
1.39134e-09
1.78385e-08
-3.2459e-09
-2.35508e-08
-4.68193e-09
-1.48431e-08
-6.73772e-09
7.04929e-09
3.91344e-09
8.23991e-10
1.57201e-08
4.57787e-08
-2.34993e-08
-4.42517e-09
1.52682e-08
-1.01733e-08
-3.96797e-09
7.35549e-10
4.856e-11
-8.83619e-10
-1.7688e-09
-6.98803e-10
2.53011e-09
8.05673e-09
8.07946e-09
2.13748e-09
5.1881e-10
3.50694e-10
9.50267e-11
2.83069e-10
3.71564e-09
5.30053e-09
1.02191e-10
1.01387e-09
-4.46711e-09
-2.9452e-09
5.62616e-11
2.94348e-10
1.26575e-10
-5.21295e-10
-3.38789e-09
8.14485e-09
1.69449e-09
-2.16691e-08
-1.54043e-09
-9.96162e-09
-1.3467e-08
4.20599e-09
6.25948e-09
8.29673e-10
5.08859e-09
2.25924e-08
1.83023e-09
5.27892e-09
7.9247e-09
-8.09549e-09
-1.2214e-09
2.04309e-10
2.31778e-11
-7.07838e-10
-1.95094e-09
-1.62762e-10
4.47626e-09
8.71168e-09
1.20174e-08
5.00089e-09
6.12402e-10
1.89304e-10
1.23516e-10
6.14793e-10
2.37346e-09
2.2372e-09
-2.34023e-10
-2.67369e-11
-1.74585e-09
-3.76175e-10
8.39211e-10
7.05685e-10
1.07459e-10
3.26275e-11
-5.23387e-09
-1.85455e-09
-2.42473e-09
-2.7314e-08
-5.487e-09
-1.92284e-09
-9.65146e-09
8.50816e-09
9.75438e-09
2.49616e-09
5.25252e-09
1.38057e-08
4.35638e-09
-1.27058e-09
9.69511e-10
1.07186e-09
2.16473e-09
5.03347e-10
1.77598e-10
-3.25374e-10
-1.82104e-09
-1.26531e-09
5.50427e-09
6.89037e-09
1.17804e-08
8.97825e-09
1.3066e-09
5.73511e-11
2.09395e-10
1.07009e-09
1.816e-09
-1.82716e-10
-6.37791e-10
-7.16446e-10
-5.19659e-10
6.32408e-10
8.00321e-10
4.73203e-10
2.01696e-10
6.5698e-11
-3.14839e-09
-6.11584e-09
8.37548e-10
-2.68825e-08
-1.60545e-08
-1.95726e-09
1.6492e-09
1.11666e-08
7.59996e-09
4.37645e-09
5.16964e-09
1.67161e-08
4.00108e-09
-4.89693e-09
1.28267e-10
3.43789e-09
2.695e-10
-1.46574e-09
-4.34348e-10
3.51289e-11
-1.58331e-09
-2.99365e-09
3.10913e-09
6.39056e-09
5.63629e-09
1.07514e-08
3.33679e-09
3.11842e-11
4.21894e-10
1.13214e-09
1.53455e-09
-1.09965e-10
-1.482e-09
-1.79546e-09
-1.55656e-09
8.40295e-11
7.49829e-10
9.13143e-11
-1.35129e-11
-3.21661e-11
-8.31875e-10
-3.52847e-09
8.46831e-09
-9.0067e-09
-1.77075e-08
-4.13484e-09
3.77081e-09
1.71312e-09
2.62594e-09
3.23079e-09
7.6096e-10
1.44692e-08
1.08813e-08
-1.75596e-09
1.25838e-09
-6.48036e-10
-7.61003e-09
-4.59165e-09
-5.21707e-10
-4.84903e-10
-1.58676e-09
-2.19537e-09
1.4631e-09
6.78146e-09
-1.24698e-09
4.3296e-09
5.62145e-09
2.97949e-10
4.87524e-10
1.13602e-09
9.65114e-10
4.57238e-10
-1.59088e-09
-2.59595e-09
-1.47833e-09
2.69703e-10
8.81503e-10
4.17841e-10
4.31997e-10
1.20097e-10
1.34219e-10
-6.12305e-11
1.04568e-08
9.24859e-09
-1.03067e-08
-1.6618e-10
-2.60098e-09
-6.3543e-09
9.47955e-10
1.65788e-09
-1.25348e-09
4.74245e-09
6.94397e-09
-2.52031e-10
2.98138e-09
-6.92883e-09
-9.94587e-09
-2.13029e-09
-1.18616e-10
-2.63136e-09
-1.4329e-09
-8.87383e-10
2.60195e-10
5.43175e-09
-3.12679e-09
-1.09184e-08
1.85347e-10
4.3813e-10
-3.84934e-11
7.19672e-10
8.54319e-10
-1.07822e-10
-2.42458e-09
-3.25642e-09
-1.08745e-09
1.27342e-09
1.91698e-09
6.58599e-10
2.25563e-09
5.82631e-10
6.67819e-11
4.02904e-10
9.02256e-09
9.47932e-09
-5.0805e-09
1.73977e-09
-6.82259e-09
-3.87424e-09
2.3235e-09
6.12112e-10
-1.04393e-09
-9.77085e-10
-2.33213e-09
-3.61643e-09
-1.97968e-09
-5.02575e-09
-9.45575e-10
-7.39113e-10
-6.61173e-10
5.25956e-09
3.93528e-09
4.16737e-10
1.92646e-09
7.77609e-10
-2.4079e-09
-1.44986e-08
-1.29072e-08
-3.92712e-09
-1.24679e-09
1.52195e-10
5.46018e-10
-1.47659e-10
-1.60485e-09
-1.39806e-09
-8.77991e-10
2.22697e-09
-3.32118e-10
-1.45539e-09
6.43403e-10
-7.477e-10
-1.92844e-09
-2.00017e-09
4.3748e-09
2.03444e-09
-1.72742e-09
-6.61806e-10
-7.66975e-09
-2.67631e-10
3.03382e-09
3.39589e-10
-6.47694e-10
-3.9907e-09
-3.51857e-09
-4.91091e-10
-4.44316e-09
-1.89338e-09
1.01581e-09
1.8343e-09
1.82579e-09
4.82702e-09
6.60564e-09
2.49437e-09
1.00851e-08
1.18253e-08
-2.3265e-09
-7.64e-09
-1.18739e-08
-7.81768e-09
-3.01236e-09
-9.50326e-10
5.15315e-10
1.80343e-09
-1.06807e-10
-2.0162e-09
1.71117e-09
1.44768e-09
-3.7323e-09
-1.7215e-09
-4.72694e-09
-4.71018e-09
-1.75609e-09
-1.09073e-09
-8.24695e-10
-8.3218e-10
-3.95557e-10
-1.68319e-09
-3.41035e-09
4.3125e-11
2.24445e-09
5.3935e-10
4.89723e-10
-7.21062e-10
-1.33431e-09
-9.07497e-10
-1.84065e-10
7.95299e-10
5.8567e-10
-7.52725e-10
-2.93679e-09
-2.45749e-09
2.9748e-09
2.89046e-09
1.0195e-08
2.41649e-08
8.96037e-09
-4.05189e-09
-4.45779e-09
-6.11483e-09
-3.50401e-09
-7.27223e-10
3.28308e-10
1.62492e-09
1.66118e-09
-2.33224e-10
2.78907e-09
1.75352e-09
-8.74376e-10
9.58814e-10
-3.35102e-09
-4.40424e-09
1.87043e-09
-1.25159e-09
-1.52932e-09
1.01733e-09
4.89394e-10
-9.84531e-10
-2.16578e-09
-1.93145e-09
2.74817e-10
7.91778e-10
1.32475e-10
3.97003e-10
-2.8291e-10
-6.14735e-10
-3.93299e-10
-1.24877e-10
2.49068e-10
-3.40721e-10
-1.87907e-09
-2.42109e-09
-7.14675e-11
1.17312e-09
5.82521e-09
1.91798e-08
1.13864e-08
-8.97681e-10
-1.0347e-09
-2.58793e-09
-2.82944e-09
-1.07549e-09
2.44664e-10
2.96834e-10
9.67406e-11
-4.6249e-10
-5.99156e-11
4.64796e-10
3.12258e-10
1.54035e-09
2.2907e-09
1.7932e-09
3.88807e-09
1.47506e-09
-7.8706e-10
6.63836e-10
2.12598e-09
-1.83057e-10
-1.50486e-09
-1.43609e-09
-1.54382e-09
-9.24468e-10
-3.38217e-10
9.4852e-10
6.37315e-10
-1.40989e-09
-7.22146e-10
1.51717e-09
1.67148e-09
2.30622e-10
-1.16769e-09
-1.77927e-09
-7.01178e-10
1.1603e-09
1.98085e-09
7.17473e-09
8.79522e-09
1.19328e-09
-3.66983e-10
-5.33183e-10
-1.15014e-09
-5.35902e-10
1.0135e-10
8.7009e-11
-1.33209e-10
-1.87849e-10
-1.27909e-09
-3.46724e-09
-1.35333e-09
2.39298e-09
7.76021e-10
-2.1486e-09
-3.86554e-09
-2.10077e-09
-4.41862e-10
2.3613e-10
1.78312e-09
4.74055e-10
-1.03014e-09
-7.7713e-10
-3.52936e-10
-2.01798e-10
1.20543e-10
6.62133e-10
9.77329e-10
9.22592e-10
1.09293e-09
7.44213e-10
3.7074e-10
-1.77471e-10
-1.21158e-09
-1.22689e-09
-8.72218e-10
-2.72918e-10
5.98714e-10
1.26816e-09
3.54224e-09
1.64458e-09
-5.59279e-11
-2.46957e-10
-3.89178e-10
-1.13814e-10
2.63063e-10
3.2263e-11
-1.20814e-10
9.70559e-11
-6.47662e-10
-2.39127e-09
9.87777e-10
8.38991e-09
6.43999e-09
-1.93487e-09
-7.3446e-09
-5.72988e-09
-1.40557e-09
1.70832e-10
6.5563e-10
3.79167e-10
-4.24087e-10
-3.8942e-10
2.64018e-10
3.91065e-10
5.63426e-10
1.20228e-09
9.58597e-10
-4.793e-10
-1.29548e-09
-1.02891e-09
-7.1879e-10
-1.0682e-09
-1.56669e-09
-7.3389e-10
-5.90255e-11
-7.18906e-10
5.17703e-10
8.74223e-10
-7.69821e-11
-1.51656e-10
-4.88304e-10
-4.70841e-10
-1.24292e-10
7.37597e-11
9.61733e-10
2.92853e-10
-5.21683e-10
-4.36694e-10
-5.62071e-10
-9.83988e-10
-3.46515e-10
2.65585e-09
5.07001e-09
3.43314e-09
5.50956e-10
-1.14707e-09
-5.74299e-10
1.59966e-10
9.8921e-11
3.96348e-12
2.71634e-10
-2.11553e-11
-2.61746e-10
-4.73642e-10
-3.45936e-10
1.38916e-11
-8.55419e-10
-1.60233e-09
-1.08043e-09
-6.85008e-10
-2.86562e-10
-5.20573e-10
-9.55763e-10
1.67795e-10
1.09455e-09
8.04563e-11
-1.84337e-10
7.50667e-10
1.79667e-11
-1.20647e-09
-8.46203e-10
-7.82723e-10
-9.4971e-10
2.82084e-11
1.00038e-11
1.66772e-11
1.33798e-11
6.7029e-12
6.0208e-11
9.68381e-11
6.32433e-11
3.75802e-11
9.90265e-12
2.8138e-12
-1.81115e-12
4.70766e-11
2.4972e-10
5.32874e-10
8.90319e-10
1.54367e-09
2.1699e-09
1.9504e-09
8.04487e-10
-3.35333e-11
-8.86766e-11
-1.49954e-12
1.76107e-10
2.11394e-10
1.47745e-10
1.50269e-10
8.66369e-11
1.43247e-10
-2.29245e-11
7.86739e-11
8.49286e-10
1.10934e-09
5.71059e-10
5.03802e-11
-1.88331e-11
-3.1626e-11
-2.90951e-10
-3.75532e-12
-1.28676e-11
-3.00016e-12
-6.55024e-11
5.54905e-11
8.03033e-12
-7.20752e-11
1.57134e-10
6.71675e-10
5.75982e-10
2.37673e-10
8.70958e-11
-7.31714e-11
-4.40798e-10
-8.41115e-10
-7.29378e-10
-2.2082e-10
5.03674e-10
2.46073e-09
5.15541e-09
6.59774e-09
5.59401e-09
3.30983e-09
6.99742e-10
-6.27754e-10
1.90754e-10
1.54815e-09
3.54736e-09
5.21428e-09
3.64226e-09
5.23088e-10
-2.41399e-09
-3.52142e-09
-1.40329e-09
3.04664e-09
5.98306e-09
4.05843e-09
8.61548e-10
-1.24226e-09
-1.81495e-10
8.96978e-10
-3.39509e-11
-2.8381e-10
-3.69515e-10
-1.28022e-10
-7.44786e-11
-2.31823e-10
-1.20107e-10
7.11206e-10
9.76828e-10
5.5126e-10
1.95245e-10
-8.60588e-11
-5.73842e-10
-1.43339e-09
-1.71456e-09
-1.65264e-09
-9.96079e-10
8.57953e-10
2.57706e-09
3.77504e-09
4.93646e-09
4.95541e-09
-1.18074e-09
-8.30285e-09
-1.76874e-09
1.93089e-09
4.88669e-09
6.86761e-09
4.68314e-09
1.52773e-09
-1.32475e-09
-2.92121e-09
-3.00761e-09
1.3327e-10
3.93816e-09
4.50177e-09
1.70008e-09
-1.06565e-09
-6.33244e-10
-2.00988e-10
3.73622e-10
-5.29276e-10
-7.93901e-10
1.08165e-11
-5.27419e-11
-1.1569e-10
5.48911e-11
4.21275e-10
4.15068e-10
1.78292e-10
-1.36185e-10
-6.94296e-10
-7.18671e-10
-1.03746e-09
-1.44007e-09
-1.31881e-09
6.42109e-10
2.78413e-09
1.46197e-09
-3.23622e-10
-3.93746e-10
6.74155e-10
-6.42127e-09
-2.75175e-08
-9.711e-09
3.3329e-09
6.83757e-09
7.0145e-09
2.45109e-09
6.99728e-10
1.91659e-10
-1.65173e-10
-1.49867e-09
-1.62694e-09
-2.01968e-10
5.80554e-10
1.58894e-10
-1.38881e-09
-3.80226e-09
-1.81075e-09
-2.5315e-10
2.22601e-11
-1.82654e-09
1.58663e-10
4.38435e-10
-5.83869e-11
1.01713e-09
1.56264e-09
5.5426e-10
-6.48965e-11
-2.53574e-10
-1.61527e-09
-1.37138e-09
-1.35345e-09
-1.61413e-09
-1.32095e-09
4.28806e-09
9.77134e-09
6.91e-09
3.66015e-09
1.74945e-09
7.99285e-11
9.08082e-10
-5.05599e-08
-3.56679e-08
2.22062e-09
1.05578e-08
1.1745e-08
4.16268e-09
6.48236e-10
5.77702e-10
-2.21831e-11
-4.29682e-11
9.14375e-12
-2.14652e-11
3.76218e-11
7.13062e-10
1.76091e-09
-6.29903e-09
-7.49828e-09
-3.93041e-09
2.31896e-09
2.1609e-09
-3.26142e-09
1.05987e-09
-3.94759e-10
2.21491e-09
4.16953e-09
1.99588e-09
1.43089e-10
-1.36862e-11
-2.84328e-09
-1.90185e-09
-1.45685e-09
-3.14817e-09
-3.57573e-09
5.76855e-09
1.46278e-08
8.50798e-09
4.03587e-09
3.08484e-09
-1.17694e-09
1.3996e-08
-6.02928e-08
-7.63094e-08
-2.36524e-09
1.22085e-08
1.28094e-08
6.82053e-09
1.21262e-09
8.47119e-10
5.69219e-10
7.40846e-10
9.62013e-10
3.12879e-10
4.42223e-10
5.21668e-10
3.23134e-09
-3.10947e-09
-1.44513e-08
-8.64458e-09
3.09872e-09
1.22812e-08
-6.35069e-09
-1.04842e-09
-1.43722e-09
2.66381e-09
7.43595e-09
4.38254e-09
1.11712e-09
8.76569e-10
-4.19736e-09
-5.09728e-09
1.53371e-09
-3.44546e-09
-7.55195e-09
4.83143e-09
1.32514e-08
4.03068e-09
7.57476e-10
1.33462e-09
-1.22178e-09
2.39181e-08
-4.75465e-08
-1.10961e-07
-1.61364e-08
5.52568e-09
3.74513e-09
4.28696e-09
1.42861e-09
6.58995e-10
4.33947e-10
7.71732e-10
1.63411e-09
1.20397e-09
2.9297e-09
2.47473e-09
1.87399e-09
9.71122e-10
-1.48918e-08
-1.45935e-08
-6.20414e-10
1.59388e-08
4.95771e-09
-7.43427e-09
-2.86525e-09
9.3524e-10
1.24744e-08
8.45939e-09
2.54349e-09
2.78226e-09
-3.70896e-09
-1.26121e-08
2.2336e-09
1.39022e-10
-1.14009e-08
3.21757e-09
6.11481e-09
-4.54187e-09
-9.70863e-10
-5.42609e-10
-1.60571e-10
3.15687e-08
-1.63169e-08
-1.14188e-07
-4.02514e-08
-6.31572e-09
-8.27443e-09
-9.007e-12
1.21734e-09
5.29517e-10
-4.46773e-11
4.12487e-10
3.15149e-09
3.88363e-09
5.478e-09
7.24014e-09
3.99278e-09
1.95464e-09
-7.84191e-09
-1.6915e-08
-5.03874e-09
1.36746e-08
2.21276e-08
-8.79191e-09
-5.49359e-09
-2.32506e-10
1.86719e-08
1.46119e-08
5.63278e-09
6.56994e-09
1.18346e-09
-1.50545e-08
-5.64455e-09
3.25822e-09
-1.22373e-08
2.17453e-10
-4.00078e-09
-9.30587e-09
3.01297e-09
1.02037e-10
6.56614e-10
3.10446e-08
1.99103e-08
-8.36254e-08
-6.12668e-08
-1.95981e-08
-1.55721e-08
-5.05602e-10
1.23594e-09
7.67323e-10
-1.37452e-10
-3.27988e-10
3.35001e-09
7.18934e-09
8.26288e-09
9.85052e-09
7.63974e-09
3.70748e-09
-1.86252e-09
-1.11212e-08
-7.77663e-09
9.82398e-09
2.20437e-08
1.21639e-09
-1.28537e-08
3.26233e-09
2.30015e-08
2.12604e-08
8.56237e-09
6.42936e-09
1.00032e-08
-8.45414e-09
-1.22913e-08
1.90619e-09
-8.2905e-09
-5.59776e-09
-7.76951e-09
1.49941e-10
1.32792e-08
1.73152e-09
1.82896e-09
1.85045e-08
4.1228e-08
-4.13694e-08
-6.79251e-08
-2.88852e-08
-8.03582e-09
3.6208e-09
1.02311e-09
1.10317e-09
1.3061e-10
-8.78289e-10
2.43645e-09
8.57144e-09
1.09962e-08
9.92446e-09
7.35604e-09
4.69989e-09
1.06537e-09
-3.52982e-09
-5.33976e-09
5.73579e-09
5.19913e-09
-1.20587e-09
-1.90846e-08
-1.12963e-09
1.4022e-08
2.21497e-08
8.76749e-09
6.46531e-10
1.2717e-08
3.24875e-09
-1.37993e-08
3.15327e-10
-4.9641e-09
-1.08028e-08
-2.88692e-09
1.27508e-08
1.54431e-08
1.85102e-09
4.62325e-09
8.92382e-09
3.48613e-08
-1.19034e-08
-5.76494e-08
-2.17012e-08
1.17932e-08
4.93405e-09
5.01545e-10
1.38732e-09
4.84921e-11
-2.1276e-09
1.07491e-09
9.64607e-09
1.30246e-08
1.13878e-08
5.32179e-09
3.02193e-09
1.58495e-09
-3.73978e-10
1.20828e-09
1.10754e-08
-1.3539e-08
-1.75899e-08
-1.39855e-08
-1.72134e-08
-8.44541e-09
1.27724e-08
5.45256e-09
-1.3052e-09
7.93519e-09
9.63619e-09
-1.55171e-08
-6.16959e-09
-5.10449e-09
-1.03153e-08
-6.92451e-10
1.07568e-08
6.35739e-09
1.25712e-09
7.05023e-09
1.78403e-08
2.82864e-08
8.41991e-09
-3.8938e-08
-5.5848e-09
1.36145e-08
-1.88534e-09
4.00713e-11
1.42133e-09
4.79003e-10
-2.41186e-09
-4.86895e-10
9.76023e-09
1.28568e-08
1.39635e-08
7.57928e-09
1.89004e-09
1.00945e-09
-4.82849e-11
4.49324e-09
1.38415e-08
-7.68718e-09
-1.85023e-08
-2.41261e-09
-2.6924e-08
-2.13963e-08
1.26523e-09
1.75524e-09
3.08209e-10
5.34624e-09
1.09404e-08
-1.82131e-08
-1.91677e-08
-6.77051e-09
-9.49429e-09
-6.02758e-09
-1.27232e-09
-5.52915e-10
1.34582e-09
6.60918e-09
3.0311e-08
4.28183e-08
2.63625e-08
-2.20731e-08
-2.66855e-10
-3.07179e-09
-5.07779e-09
3.13484e-10
2.37577e-09
1.54466e-09
-1.5108e-09
-1.29304e-09
6.98401e-09
7.42339e-09
1.05152e-08
1.06881e-08
2.47011e-09
5.55746e-10
1.37633e-10
2.83383e-09
6.79195e-09
3.99682e-09
-3.89401e-09
1.79291e-09
-2.26685e-08
-1.55713e-08
-2.57358e-09
-4.23107e-11
3.81814e-10
4.55993e-09
1.56045e-08
-1.21461e-08
-3.16381e-08
-9.048e-09
-7.67752e-09
-1.11924e-08
-8.19787e-09
8.10701e-10
2.92637e-09
3.59121e-09
2.77984e-08
4.65911e-08
2.26454e-08
-1.38061e-08
-1.96839e-09
-3.17872e-09
1.91393e-09
4.75605e-09
3.42152e-09
1.28633e-09
-3.1225e-10
-8.75012e-10
3.27798e-09
2.20943e-10
-2.95992e-09
9.83559e-09
3.83196e-09
1.41131e-10
6.8334e-10
2.03004e-09
2.50927e-09
1.46197e-09
-8.7379e-10
-2.58318e-09
-9.85742e-09
-3.66053e-09
-4.57012e-10
-2.37378e-10
-4.91217e-11
3.23891e-09
1.99385e-08
5.37282e-09
-3.31877e-08
-1.38802e-08
-4.06113e-09
-1.0322e-08
-5.16247e-09
6.86912e-09
4.70997e-09
1.78437e-09
1.90395e-08
3.77535e-08
1.19666e-08
-1.01428e-08
-6.69386e-10
7.46755e-09
9.26891e-09
2.30182e-09
-2.62054e-10
1.83818e-09
8.65488e-10
-6.92611e-10
7.04171e-10
-1.60746e-09
-1.61476e-08
-1.37025e-10
6.35884e-09
3.65929e-10
8.53827e-10
1.70561e-09
6.76868e-10
-1.05369e-09
-1.33548e-09
-2.43116e-09
-6.6403e-10
5.17409e-10
4.62676e-10
-5.21529e-11
6.938e-11
3.20006e-09
2.12244e-08
2.02038e-08
-2.47398e-08
-1.96307e-08
-2.34942e-09
-6.00427e-09
3.05568e-10
6.77636e-09
3.62866e-09
1.72157e-09
8.96424e-09
3.18678e-08
2.30868e-08
-1.8221e-09
-6.50709e-10
8.47351e-09
-2.32375e-09
-9.1124e-09
-3.06692e-09
-1.84723e-10
-1.40945e-10
-1.41233e-09
1.86035e-09
-3.37e-10
-1.74721e-08
-1.61374e-08
5.33039e-09
1.9599e-09
5.58022e-10
1.43307e-09
7.10108e-10
-9.91578e-10
-7.32157e-10
-3.20772e-10
7.07937e-11
5.49699e-10
5.82813e-10
8.52131e-11
1.70355e-10
3.48663e-09
2.08576e-08
2.91497e-08
-8.81065e-09
-2.2079e-08
-5.42243e-09
-5.59655e-09
-2.15689e-09
2.75305e-09
2.02157e-09
1.2883e-09
1.98171e-09
1.71328e-08
2.12432e-08
9.77782e-10
-1.36715e-09
-3.37788e-09
-1.22679e-08
-8.12507e-09
-4.66049e-09
-2.8944e-09
-5.16589e-10
-1.87713e-09
-3.1224e-09
3.0637e-09
-1.14285e-08
-2.47424e-08
-6.01459e-09
2.83172e-09
3.42407e-11
1.01719e-09
5.08089e-10
-2.65982e-10
-3.50501e-10
-6.86687e-10
-2.40864e-10
1.33837e-09
9.92816e-10
3.4431e-10
4.42715e-10
2.47348e-09
1.45348e-08
2.61019e-08
6.36582e-09
-1.66704e-08
-6.76839e-09
-8.49366e-09
-5.64053e-09
9.54531e-10
1.10596e-09
5.82269e-10
6.61185e-10
7.6226e-09
6.59992e-09
-6.24084e-09
-5.25833e-09
-9.27404e-09
-1.0111e-08
-4.34426e-09
-3.08509e-09
1.73782e-09
5.35668e-09
4.0503e-09
-8.7499e-09
-7.90076e-09
-5.00113e-09
-1.82232e-08
-1.59888e-08
-7.90323e-10
6.29652e-10
-2.7252e-10
-7.35982e-10
-6.75176e-10
-1.00537e-09
-3.62227e-10
1.65163e-09
2.5354e-09
4.12686e-10
1.43436e-09
6.32724e-10
-2.84945e-09
1.9325e-09
1.08035e-08
6.12593e-09
-6.5374e-09
-3.37311e-09
-6.30187e-09
-4.74776e-09
-4.49047e-10
4.32822e-10
-1.75411e-11
4.78252e-10
6.21454e-10
-2.31287e-09
-1.69306e-09
-4.46261e-09
-9.3961e-09
-3.38848e-09
2.9164e-10
4.49988e-09
9.68285e-09
3.77832e-09
6.00659e-09
9.35909e-09
-1.56621e-08
-8.20579e-09
-7.25366e-09
-1.02327e-08
-4.49614e-09
7.54786e-10
-3.56379e-10
-1.86715e-09
-1.26711e-09
-4.64264e-10
-5.33684e-10
2.78701e-09
2.83881e-09
-2.88284e-10
7.52807e-10
3.78597e-10
-4.61521e-09
-5.83764e-09
-2.00349e-09
-9.98971e-10
-1.6126e-09
-3.36153e-09
-3.8137e-09
-1.49099e-09
4.02294e-10
6.14302e-10
9.21222e-11
1.42074e-10
-2.06587e-10
-4.28662e-10
-7.86226e-10
-2.20385e-09
-1.09844e-09
8.29512e-10
9.22939e-10
1.88865e-09
4.27588e-09
2.20343e-09
6.81152e-09
3.25946e-08
2.33057e-08
-5.48121e-09
-6.01569e-09
-3.25009e-09
-1.70504e-09
-1.54763e-09
-1.51047e-09
-1.70148e-09
-5.80953e-10
-1.02276e-10
-1.7477e-10
1.9205e-09
3.58738e-09
2.42592e-09
6.05147e-10
-8.94815e-10
-1.27774e-09
3.3015e-10
-2.66564e-09
-5.4419e-09
1.27006e-09
1.22581e-09
-1.04655e-09
-4.56293e-10
-4.42572e-10
-2.11262e-10
4.29129e-11
-1.70015e-10
-2.71047e-10
-7.5016e-11
-2.40315e-10
-2.81447e-10
1.29336e-09
3.23556e-09
2.18768e-09
-1.01613e-09
-1.43656e-09
8.89692e-10
2.07101e-09
2.16045e-08
3.62232e-08
1.35918e-08
-2.84762e-09
-1.79815e-09
-2.07675e-09
-4.59987e-09
-3.82015e-09
-4.14832e-10
1.46763e-10
-8.4517e-11
-4.72833e-10
-7.36758e-10
1.15051e-09
1.78715e-09
5.06944e-10
1.04868e-09
1.24519e-09
2.15206e-09
-2.80547e-10
-2.88069e-09
8.87866e-10
1.1295e-09
3.08603e-10
1.0121e-09
3.12892e-10
-2.84111e-10
-5.0089e-11
-1.35249e-10
-2.55491e-10
-5.22109e-10
-1.40015e-10
1.51951e-09
1.81275e-09
2.70653e-10
-4.09703e-10
-4.74898e-10
-2.69559e-10
7.90091e-10
1.13878e-10
5.59153e-09
1.95736e-08
1.10099e-08
-1.09529e-09
-5.51156e-10
-5.47031e-10
-2.10336e-09
-1.74333e-09
2.40196e-10
4.31185e-10
-3.35975e-12
-2.35717e-10
-6.50672e-10
-1.94005e-09
-1.51272e-09
4.84279e-10
2.23915e-09
1.94246e-09
-3.56708e-09
-6.88806e-09
-2.68631e-09
-4.33617e-11
1.54021e-09
1.15747e-09
3.11697e-10
5.70872e-10
3.91737e-10
3.31291e-10
4.44247e-10
5.33945e-10
-1.59347e-11
-3.51516e-10
-2.83438e-10
-1.13507e-09
-2.06159e-09
-1.69249e-09
-1.35598e-09
-9.07142e-10
2.25728e-10
-1.62711e-10
1.27733e-09
7.93574e-09
6.46011e-09
5.7633e-10
-4.66988e-10
9.92523e-12
5.68679e-10
5.25075e-10
4.07928e-10
2.30961e-11
3.80342e-11
-5.48351e-11
-2.56683e-10
-1.33465e-09
-7.29854e-10
2.98891e-09
4.3017e-09
4.07399e-09
9.99962e-11
-7.47521e-09
-4.53344e-09
-5.31032e-10
4.80806e-11
8.09988e-11
4.08041e-10
5.85958e-10
8.2874e-11
-2.45081e-10
3.50993e-11
1.97423e-10
-4.14314e-10
-1.12536e-09
-1.45749e-09
-1.36439e-09
-5.58705e-10
-8.60231e-11
-7.97287e-10
-9.3548e-10
2.07413e-10
3.1314e-11
1.9893e-10
8.46535e-10
5.55914e-10
-8.57798e-10
-1.57106e-09
-9.29994e-11
1.43131e-09
1.29551e-09
1.61032e-09
1.27659e-09
1.48994e-10
-3.33082e-10
-3.32362e-10
-1.11523e-09
-8.57221e-10
1.38621e-09
2.03271e-09
2.01539e-09
2.35467e-09
1.01079e-09
1.15136e-10
1.70573e-11
9.95147e-11
-3.16485e-10
-2.92488e-10
1.60462e-11
-1.04881e-09
-1.0998e-09
-6.43729e-10
-1.3402e-09
-1.36942e-09
-4.19089e-10
-5.68147e-11
-6.98649e-11
2.2031e-11
-3.76721e-10
-1.28314e-09
-6.19641e-10
8.61867e-10
6.46546e-10
7.33543e-10
1.00318e-09
-9.76254e-10
-2.43363e-09
-2.74041e-09
-2.35418e-09
-1.09156e-09
5.65911e-10
6.80215e-11
4.05582e-11
-5.61292e-12
2.60532e-11
6.65649e-11
3.73032e-11
1.37404e-11
1.21487e-11
1.21096e-11
-1.23782e-11
3.71886e-11
1.30492e-10
1.81854e-10
1.86197e-10
4.88201e-10
1.02737e-09
1.5569e-09
2.1949e-09
2.67626e-09
9.35375e-10
1.07255e-10
1.16197e-10
4.14034e-11
8.16458e-11
3.22099e-10
4.10739e-10
2.29169e-10
9.41467e-12
-4.98173e-11
4.30444e-10
1.13156e-09
1.00702e-09
3.65114e-10
5.31137e-11
-1.29091e-11
-1.1471e-12
-1.63059e-10
-1.24489e-10
-8.01566e-12
2.9627e-14
-9.66505e-10
-7.86336e-10
-4.20725e-10
-2.26481e-10
1.99456e-11
1.76501e-10
1.963e-10
1.55314e-10
1.4127e-11
-2.62951e-10
-4.7617e-10
-3.48699e-10
-4.55757e-11
-2.47902e-10
1.76223e-10
1.52582e-09
2.13611e-09
2.57706e-09
7.83533e-09
1.04575e-08
4.25121e-09
-2.66453e-10
-3.28548e-10
4.79109e-10
1.25414e-09
1.19627e-09
-5.43874e-11
-1.41093e-09
-2.74543e-09
-2.67965e-09
7.55784e-10
4.50098e-09
4.31148e-09
1.91885e-09
3.22836e-10
-3.54547e-10
-2.37294e-11
-5.22288e-11
3.61761e-11
-5.78121e-10
-2.3097e-09
-1.64614e-09
-6.75474e-10
-3.3576e-10
1.4265e-10
4.63445e-10
3.28321e-10
2.57337e-10
1.29066e-10
-2.70799e-10
-7.65191e-10
-9.47772e-10
-8.72247e-10
-9.697e-10
-5.07668e-10
1.69113e-10
-1.49494e-10
-1.55373e-09
8.18276e-10
8.20925e-09
6.72423e-09
-3.39183e-09
-5.24546e-09
-7.0292e-11
2.75325e-09
2.63231e-09
-7.2092e-11
-1.6225e-09
-2.79875e-09
-3.75883e-09
-1.48789e-09
2.69645e-09
4.07689e-09
2.39283e-09
4.4399e-10
-6.7193e-10
-5.05384e-10
-7.34259e-10
-1.02944e-10
-7.40093e-10
-5.25033e-09
-2.11102e-09
-4.4456e-10
-1.96412e-10
1.95327e-10
5.21843e-10
3.47957e-10
2.28305e-10
9.24601e-11
-6.49157e-11
-3.38648e-10
-7.3069e-10
-7.16621e-10
-2.51578e-10
2.59941e-10
-6.2492e-10
-2.22105e-09
-3.63259e-09
-3.86389e-09
3.55983e-10
8.46843e-10
-9.09176e-09
-1.53228e-08
-4.76355e-09
2.12132e-09
2.19456e-09
-2.64928e-10
-4.77854e-10
-4.7369e-10
-1.87758e-09
-1.95648e-09
-5.14338e-11
8.69666e-10
5.95229e-10
3.3151e-12
-1.8486e-09
-3.3326e-09
-2.33297e-09
-1.31278e-09
1.03005e-09
-1.17686e-08
-5.47716e-09
-3.72229e-10
-1.74079e-10
1.38494e-10
4.71382e-10
3.60982e-10
3.40062e-10
1.03124e-10
-8.32098e-11
5.77018e-11
-5.92845e-10
-7.34541e-10
2.58956e-10
9.00686e-10
-9.04848e-10
-2.61284e-09
-2.86955e-09
-1.81195e-09
1.32687e-09
-9.26923e-10
-6.9094e-09
-2.69681e-08
-1.73943e-08
1.25463e-09
3.96768e-09
2.18791e-10
-1.5598e-10
2.79656e-11
-5.42416e-10
-4.20796e-10
7.8008e-10
7.95111e-10
6.27922e-10
1.51659e-09
-1.50026e-09
-8.75085e-09
-8.47018e-09
-2.45999e-09
6.36774e-09
-8.15042e-09
-1.97254e-08
-8.81155e-10
-3.16372e-10
1.43595e-10
7.42003e-10
4.49219e-10
3.74528e-10
4.03296e-10
-2.11238e-10
4.19021e-11
-7.33831e-10
-1.1195e-09
-7.04679e-11
-1.10956e-09
-4.85099e-09
-4.78361e-09
-3.024e-09
-8.56571e-10
1.86237e-09
-5.50246e-10
-6.10214e-09
-3.83681e-08
-3.49037e-08
-3.12869e-09
7.45413e-09
9.90384e-10
-3.26985e-10
2.79799e-10
6.02936e-10
8.68817e-10
1.4032e-09
1.09252e-09
9.75501e-10
2.3536e-09
1.19332e-09
-9.74097e-09
-1.68261e-08
-3.44031e-09
1.07188e-08
1.98724e-08
-4.35805e-08
-5.01943e-09
-6.39666e-10
-2.69882e-10
1.12577e-09
8.44679e-10
-1.0547e-11
4.92153e-10
-1.76958e-10
-3.70283e-10
-9.92034e-10
-1.29727e-09
-3.06332e-10
-4.94894e-09
-9.44994e-09
-5.67368e-09
-2.23954e-09
1.43315e-09
7.06953e-10
6.69834e-10
-1.15568e-08
-5.01754e-08
-5.18029e-08
-1.39633e-08
6.80388e-09
1.40107e-09
-3.01008e-10
1.5228e-10
9.88142e-10
1.51812e-09
2.14454e-09
2.26744e-09
3.32017e-09
4.44277e-09
3.15451e-09
-5.39825e-09
-2.03146e-08
-1.1426e-08
1.82735e-08
4.83991e-08
-3.90915e-08
-2.09506e-08
-7.43959e-10
-1.58287e-09
7.89879e-10
1.41344e-09
1.30158e-12
-2.22755e-11
-1.42372e-10
-7.82517e-10
-3.06767e-10
-5.8185e-10
-1.08923e-10
-6.64136e-09
-7.72374e-09
-2.79127e-09
-6.27577e-10
4.61494e-09
-1.75897e-09
3.23165e-09
-9.71018e-09
-5.30266e-08
-5.81045e-08
-2.48444e-08
1.96442e-09
1.16802e-09
-2.56833e-10
-1.02594e-10
2.88938e-10
1.41095e-09
4.52041e-09
6.1148e-09
6.80013e-09
8.87051e-09
5.49939e-09
-1.01026e-09
-1.45156e-08
-2.11396e-08
2.73896e-08
5.69727e-08
6.20154e-09
-4.37399e-08
-2.39412e-09
-2.423e-09
-3.19797e-10
1.86535e-09
3.51679e-10
3.36669e-11
1.23956e-09
-2.21314e-09
1.55369e-09
2.83375e-09
-1.10368e-09
-5.10674e-09
-2.57453e-09
1.07616e-09
2.08204e-09
7.84816e-09
-5.0371e-09
8.32065e-09
-1.89467e-10
-4.19829e-08
-5.40977e-08
-3.18542e-08
-2.38989e-09
4.44616e-10
-2.72501e-10
-2.89694e-10
-2.66406e-10
1.66088e-09
7.73725e-09
1.25736e-08
1.12368e-08
9.52275e-09
5.82079e-09