/*--------------------------------*- C++ -*----------------------------------*\
| =========                 |                                                 |
| \\      /  F ield         | OpenFOAM: The Open Source CFD Toolbox           |
|  \\    /   O peration     | Version:  5.0                                   |
|   \\  /    A nd           | Web:      www.OpenFOAM.org                      |
|    \\/     M anipulation  |                                                 |
\*---------------------------------------------------------------------------*/
FoamFile
{
    version     2.0;
    format      ascii;
    class       volScalarField;
    location    "50.4676134421789371";
    object      Tdiffuu;
}
// * * * * * * * * * * * * * * * * * * * * * * * * * * * * * * * * * * * * * //

dimensions      [0 2 -3 0 0 0 0];

internalField   nonuniform List<scalar> 
60000
(
3.49982e-10
-1.19562e-10
1.62919e-10
-1.16457e-10
-1.61362e-10
-5.99149e-11
-9.00405e-11
-2.13783e-10
-7.61181e-10
-6.44082e-10
3.85896e-10
7.33266e-10
9.20634e-10
1.33805e-09
1.55013e-09
1.50455e-09
7.93803e-10
-1.0326e-09
-1.14726e-09
4.77166e-09
1.28181e-08
1.44305e-08
5.8581e-09
-1.87298e-08
-7.36547e-08
-1.36754e-07
-1.26959e-07
-4.94526e-08
-1.88194e-09
2.87307e-09
-4.59246e-11
-3.08432e-09
-2.94502e-10
6.01129e-09
4.29874e-09
-1.87949e-10
-8.31957e-11
-3.65543e-10
-3.59936e-10
7.82891e-10
-6.99965e-09
-1.646e-09
-1.02395e-09
1.63865e-10
6.61225e-10
-3.39717e-10
-1.26594e-09
-2.1445e-09
-6.42668e-09
-1.69484e-08
-2.61654e-08
-1.81419e-08
-1.47783e-09
5.69006e-09
7.43944e-09
1.00935e-08
1.51147e-08
1.43319e-08
-7.7953e-09
-3.05855e-08
-7.29726e-09
3.18252e-08
6.35204e-08
1.10745e-07
1.58222e-07
1.1728e-07
-4.98253e-08
-2.05022e-07
-1.86841e-07
-7.08485e-08
-1.31692e-08
-1.01867e-08
-2.57816e-08
-4.2067e-08
-2.6502e-08
-4.18274e-09
-6.17751e-10
2.02311e-09
-5.60565e-09
-1.16338e-08
-1.0364e-08
-5.96313e-09
-1.04685e-09
1.837e-10
-6.744e-11
-5.49398e-10
-9.13229e-10
-1.24547e-09
-1.53206e-09
-7.0147e-09
-1.78377e-08
-1.89963e-08
-7.16327e-09
1.14378e-09
1.05593e-09
1.88239e-09
4.33335e-09
1.21136e-08
3.17124e-09
-2.94675e-08
-4.38072e-08
-2.03347e-08
1.82692e-08
6.51183e-08
1.44885e-07
1.86414e-07
1.04121e-07
-3.69254e-08
-8.42693e-08
-4.45542e-08
-1.2868e-08
-9.80153e-09
-1.26514e-08
-2.10002e-08
-1.93182e-08
-5.654e-09
1.10721e-10
-1.69618e-09
3.2148e-09
-6.11018e-09
-6.12147e-09
-2.51849e-09
-4.3985e-10
-2.65657e-10
-1.60714e-09
-2.55847e-09
-9.18417e-10
3.35882e-10
1.04995e-11
-2.19956e-09
-1.04276e-08
-1.01529e-08
-2.95834e-09
1.76239e-10
-3.11238e-09
-5.48932e-10
-1.92717e-09
5.08561e-09
3.58848e-09
4.49256e-09
-1.72105e-08
-5.2735e-08
-2.13745e-09
1.46333e-08
7.11719e-08
1.1732e-07
8.56774e-08
1.75618e-08
-1.33074e-08
-7.16835e-09
3.71259e-09
7.59528e-10
-2.23113e-09
-6.10071e-09
-5.5993e-09
-9.24481e-10
-4.96788e-09
-1.38959e-08
-9.90484e-10
-3.66211e-09
-3.88444e-09
9.41561e-10
-2.24262e-09
-2.32829e-09
-1.37237e-09
-2.91677e-09
-2.82602e-11
3.44864e-09
1.45055e-09
-6.59976e-10
-7.53023e-09
-9.35614e-09
-1.55126e-09
-1.41909e-09
-4.19962e-09
6.28407e-10
-1.08018e-08
-5.98861e-09
-6.49759e-09
2.45978e-08
6.67187e-08
-6.95358e-08
-6.81493e-09
-1.73208e-08
6.94114e-09
3.78896e-08
1.82823e-08
-1.18739e-09
5.24024e-10
-5.38285e-10
-5.83234e-09
-2.54549e-11
6.78824e-09
9.53907e-09
5.3464e-09
-5.28708e-09
-2.20828e-08
-2.15731e-08
-6.41466e-09
3.28075e-09
1.35625e-10
-5.28719e-11
-2.80277e-10
-2.79947e-09
-6.78785e-11
-8.8341e-10
-1.3507e-09
3.02356e-09
3.37596e-09
2.38616e-10
-1.43585e-09
-8.15239e-09
-2.11897e-09
-1.76789e-09
-1.07214e-08
-1.19575e-08
-3.35593e-08
-2.13119e-08
-2.21851e-08
-8.32358e-09
1.79331e-07
-9.68578e-09
-3.80752e-08
-8.35544e-09
1.41096e-08
3.02786e-08
8.92765e-09
-5.80289e-10
1.55795e-09
6.17044e-09
3.2845e-10
-4.71372e-09
-7.11616e-09
2.0579e-09
1.42649e-08
8.21113e-09
-1.85623e-08
-3.15948e-08
-2.41907e-08
3.60598e-09
8.41863e-09
-1.76917e-09
-4.78437e-12
-1.19038e-09
4.74223e-10
1.86938e-09
-1.55165e-09
-3.15395e-09
-3.35043e-09
9.13773e-10
8.50616e-09
6.99047e-09
-1.46872e-09
-1.44352e-09
-1.17595e-08
-3.41166e-08
-5.74335e-08
-3.70554e-08
-3.07794e-08
-9.03194e-08
1.6579e-07
1.83724e-07
-4.01917e-08
3.05521e-08
3.49173e-08
1.8961e-08
1.51399e-09
8.70991e-11
8.43447e-12
3.70416e-09
7.05072e-09
5.98228e-09
1.62887e-10
-1.6414e-08
-5.47242e-09
1.76111e-08
3.2784e-09
-2.72802e-08
-3.88843e-08
-1.47724e-08
2.77474e-09
5.55246e-09
-4.31771e-10
4.72674e-11
-7.70074e-10
8.7754e-10
2.0717e-09
-2.78402e-09
-1.30112e-08
-1.85451e-08
1.75883e-08
5.91582e-08
2.15046e-09
-9.23054e-09
4.45403e-09
-4.01389e-08
-5.53467e-08
-3.39316e-08
-2.28418e-08
-1.32285e-07
-5.67832e-08
2.95408e-07
6.35273e-08
4.02052e-08
2.17551e-08
-1.17622e-09
-5.49371e-09
-1.2953e-10
-1.53561e-10
9.87744e-10
6.28646e-09
9.92647e-09
1.35616e-08
1.52685e-09
-2.69707e-08
-8.96405e-09
1.41848e-08
-5.78924e-09
-3.51628e-08
-3.8667e-08
-2.63954e-08
1.33495e-08
1.94906e-09
3.00037e-10
-1.31439e-09
-1.30131e-09
2.86315e-09
2.6249e-09
-6.55584e-09
-3.89484e-08
-2.86428e-08
1.11454e-07
6.6157e-08
-1.67187e-08
2.24221e-08
-2.55575e-08
-2.30985e-08
-9.9706e-09
-9.71609e-09
-7.83965e-08
-2.56502e-07
9.06353e-08
1.70276e-07
1.79984e-08
-5.3001e-09
-1.21931e-08
-6.35442e-09
6.47116e-10
-3.24372e-10
1.93222e-09
6.60671e-09
1.05514e-08
1.58068e-08
1.77536e-08
-9.30758e-09
-2.68099e-08
-6.01516e-09
5.87066e-09
-1.24608e-08
-3.87926e-08
-4.76122e-08
-5.08232e-09
6.70724e-09
2.16707e-09
-5.6689e-10
-7.97271e-10
6.276e-10
2.08385e-09
-1.33179e-09
-1.91013e-08
-8.89601e-08
3.66758e-08
1.52635e-07
7.6337e-09
2.0018e-08
4.92429e-09
4.72814e-09
2.12347e-09
-1.97908e-09
-1.62208e-08
-2.12104e-07
-1.77508e-07
1.18988e-07
2.03039e-08
-1.09796e-08
-1.06339e-08
-5.52104e-10
8.64101e-10
-1.03693e-09
2.82323e-09
8.94803e-09
1.26298e-08
1.49247e-08
1.62138e-08
5.1726e-09
-1.40368e-08
-1.443e-08
-2.97666e-09
1.09884e-09
-1.65308e-08
-4.16634e-08
-4.14291e-08
8.97225e-09
2.7117e-09
2.65093e-09
2.97755e-09
-1.45374e-09
-5.7095e-10
-1.0805e-10
-2.39877e-09
-6.19939e-08
-9.1026e-08
1.07188e-07
7.08367e-08
1.33341e-08
3.98348e-08
1.33987e-08
-2.42356e-09
-2.62415e-10
-5.03112e-10
-6.53965e-08
-2.06237e-07
-6.29375e-09
4.67831e-08
1.47062e-08
-5.38531e-11
5.95073e-09
4.88404e-10
-1.07395e-09
4.0814e-09
1.21009e-08
1.31964e-08
1.34586e-08
1.44928e-08
5.41663e-09
-2.87815e-09
-6.48626e-09
-5.13445e-09
4.83339e-10
-2.38821e-09
-1.97599e-08
-5.35192e-08
2.8102e-09
-5.96939e-11
4.16253e-09
5.38945e-09
-1.41146e-09
-8.0451e-10
1.69386e-10
5.22347e-11
-1.52762e-08
-1.00268e-07
-1.11514e-08
8.82413e-08
1.39754e-08
4.44122e-08
1.95388e-08
-4.91906e-09
-1.66972e-09
1.24588e-09
-5.11219e-09
-8.67243e-08
-5.24109e-08
5.15918e-08
2.17058e-08
3.15371e-09
5.90135e-09
3.82049e-10
-2.75385e-10
4.64279e-09
1.50838e-08
1.5879e-08
5.61871e-09
1.231e-08
8.94323e-09
-1.42781e-09
-1.94524e-09
-2.47466e-09
-9.81082e-10
-4.84716e-11
-5.47732e-09
-2.56159e-08
-3.44582e-09
-2.58318e-09
-1.35559e-10
-2.67649e-10
-2.03615e-09
4.85221e-10
4.27204e-10
4.56849e-10
3.09069e-09
-4.63549e-08
-5.02269e-08
6.08584e-08
1.70026e-08
2.42994e-08
2.47516e-08
-4.94723e-09
-6.96126e-09
-1.32378e-10
-3.96881e-10
-1.51456e-08
-3.34704e-08
2.86298e-08
1.50903e-09
-8.94049e-09
1.15567e-09
-9.8245e-12
-1.23266e-10
3.00177e-09
1.32779e-08
1.99458e-08
-4.05311e-10
-1.70799e-09
1.23482e-08
1.10504e-09
-2.01809e-09
-1.06997e-09
-1.37377e-09
-3.09676e-10
-2.411e-09
-4.17575e-09
-1.24576e-09
-2.71674e-09
-4.19761e-09
-2.71035e-09
3.41478e-10
2.48582e-09
1.18593e-09
4.1251e-10
7.3651e-09
-8.73248e-09
-4.34112e-08
4.15292e-08
3.37617e-08
8.36916e-09
1.44465e-08
-1.1213e-08
-1.25331e-08
-3.69908e-09
-2.74273e-09
-5.56966e-09
-5.70865e-09
2.20829e-09
-1.72844e-08
-1.03028e-08
2.03603e-09
2.03166e-11
-9.76222e-10
6.76291e-10
7.71712e-09
1.70035e-08
3.48909e-09
-2.0744e-08
4.80402e-09
6.08296e-09
-1.30681e-09
3.60406e-10
-1.29079e-09
-2.48728e-09
-2.47623e-09
-4.93971e-10
2.88501e-10
-1.5739e-09
-2.86589e-09
2.19234e-10
2.47318e-09
2.12233e-09
9.10032e-10
4.66434e-11
5.79169e-09
1.21029e-08
-3.16406e-08
8.86419e-09
4.13969e-08
1.23414e-08
1.72189e-09
-8.94083e-09
-6.61822e-09
-5.66588e-09
-2.50621e-09
-1.66622e-08
-1.08914e-08
-5.21224e-09
-5.496e-09
2.69388e-09
1.84851e-09
3.68121e-09
1.28266e-09
-6.20636e-10
3.76213e-09
1.08842e-08
7.52049e-09
-2.87784e-08
-2.09392e-08
8.43605e-09
-1.7865e-10
4.78495e-10
1.12778e-09
-2.42242e-09
-2.28688e-09
-6.55808e-10
-2.53812e-10
-2.28831e-09
-3.14825e-09
3.26823e-10
2.01176e-09
7.86054e-10
-1.1136e-10
-5.13034e-11
3.05556e-09
1.57299e-08
-1.09404e-08
-1.61888e-08
2.31848e-08
1.32575e-08
-3.68052e-10
3.15826e-09
1.02024e-09
-2.70844e-09
-4.11581e-10
-1.19644e-08
-2.15119e-08
-5.37298e-10
4.1233e-09
-2.44298e-09
6.23703e-09
3.1175e-09
-1.77688e-09
-2.38139e-09
-5.56543e-10
5.87782e-09
1.1778e-08
-1.61383e-08
-5.19593e-08
-8.32192e-09
6.22558e-09
-4.85471e-10
1.31075e-09
-8.43811e-10
-1.34784e-09
-1.44903e-09
-2.36248e-09
-4.0484e-09
-3.99306e-09
6.65335e-10
1.87154e-09
3.9955e-10
2.40782e-10
-2.58378e-10
5.86041e-10
1.24589e-08
5.18425e-09
-1.58813e-08
8.93623e-09
2.55397e-09
-2.08644e-09
3.78544e-09
-7.798e-10
-1.48958e-09
-6.09832e-10
-6.25091e-10
-3.00731e-09
-2.6209e-09
-2.24459e-09
8.91894e-09
8.32673e-10
-1.17416e-08
-5.77104e-09
2.88545e-09
1.46211e-09
8.80596e-10
7.77387e-09
2.29704e-09
-4.26355e-08
-4.16205e-08
2.56481e-09
3.76255e-09
3.54907e-11
2.48404e-10
7.77921e-10
3.63003e-10
-3.57489e-09
-9.01696e-09
-1.74945e-09
1.06305e-08
4.15226e-09
1.62943e-09
1.84942e-09
-6.76239e-10
-3.17179e-09
4.54446e-09
4.8114e-09
-4.35352e-09
7.70725e-09
-5.83052e-09
-2.95808e-09
-2.11394e-09
-5.81177e-09
-1.68758e-09
-1.08427e-10
2.11271e-09
6.72006e-09
1.00613e-09
-2.85983e-09
-2.12026e-09
-2.38244e-08
-1.26375e-08
2.30113e-08
1.45336e-08
-6.38659e-10
-1.77104e-09
-7.64378e-10
4.51034e-09
-9.09221e-09
-3.38321e-08
-1.87457e-08
-3.39924e-09
-3.86806e-09
-1.00491e-09
-4.59374e-11
-4.04577e-09
-1.50364e-08
-6.54702e-09
1.70398e-08
1.21207e-08
4.60191e-09
8.76047e-09
2.13575e-09
-2.12136e-09
-6.24405e-09
-4.21254e-09
2.73684e-10
4.53012e-09
6.98862e-09
-7.28642e-10
4.51393e-09
-2.23098e-09
-5.69794e-09
-1.18824e-09
1.85001e-10
1.65257e-09
-1.24961e-09
1.93237e-09
3.10391e-09
-1.03252e-08
4.40714e-09
8.88984e-09
1.07339e-09
-2.34636e-09
-5.5338e-09
-7.63118e-09
-1.61296e-08
-1.21819e-09
8.0785e-09
-9.82228e-09
-2.01184e-08
-9.95122e-09
-5.81411e-09
-3.81385e-09
7.04284e-10
-7.15327e-09
-2.47769e-08
-1.24759e-08
9.37436e-09
2.69175e-09
2.65143e-09
2.22395e-09
5.40692e-10
5.05644e-10
-5.2393e-09
-1.03257e-08
-3.33764e-09
5.78083e-09
3.79476e-09
3.19066e-09
5.97893e-09
8.74281e-10
-3.27669e-09
-9.90978e-10
1.17441e-10
7.37083e-11
-3.45824e-10
-5.66665e-10
-1.18658e-09
2.9803e-09
3.4253e-09
3.90866e-09
5.04348e-09
2.25416e-09
-7.44781e-09
-4.36948e-09
-2.39348e-08
-4.86599e-08
-6.70888e-09
8.12641e-09
-5.28324e-09
-5.38986e-09
2.46131e-10
9.79902e-10
3.08109e-10
-2.72641e-10
-4.06897e-09
-5.04407e-10
2.2337e-09
-1.33625e-10
-1.79801e-10
-4.85875e-10
1.56166e-09
1.42413e-09
-2.39148e-09
-2.45969e-09
1.0907e-09
2.04429e-09
4.35986e-10
8.5246e-10
3.14207e-09
3.22192e-09
2.62465e-10
-9.77043e-10
1.12684e-10
4.46012e-10
2.85714e-10
1.30615e-10
7.25521e-10
1.14516e-09
1.7426e-10
2.32722e-10
2.88355e-09
4.08453e-09
3.14861e-10
-2.91244e-09
-2.41616e-09
-2.34196e-08
-2.49011e-08
-1.17229e-09
6.95359e-10
2.38802e-09
3.97834e-09
1.52508e-09
-1.11482e-09
-2.22204e-10
1.44042e-10
-1.46274e-10
-3.81654e-10
-4.93524e-10
-6.52483e-10
-9.31367e-10
7.12723e-10
7.18776e-10
-1.39541e-09
-1.10463e-09
-8.24841e-10
2.92642e-10
-5.56606e-10
-1.48322e-09
-7.96531e-11
1.48097e-09
1.73747e-09
1.11222e-09
9.55499e-10
-4.07079e-10
-1.68379e-09
3.37665e-10
1.87697e-09
1.30031e-10
-1.46893e-09
1.68459e-10
2.57283e-09
2.2322e-09
3.56746e-10
-1.10166e-09
-8.91954e-10
-1.27494e-09
-5.35068e-09
-2.0419e-09
2.2152e-10
1.83073e-10
2.61588e-10
-7.09332e-10
-1.46232e-10
-1.8212e-10
2.91701e-10
4.36313e-10
8.67979e-11
-1.37682e-09
-3.80787e-09
-6.39408e-10
7.42092e-09
9.55167e-09
5.18834e-09
7.82959e-10
-2.10213e-10
-9.87982e-10
-3.35671e-09
-3.64409e-09
9.17328e-10
3.24219e-09
1.50129e-09
3.81547e-10
-9.12036e-11
-6.45734e-10
-1.27528e-09
-1.46163e-09
-1.16693e-09
-5.99585e-10
-3.63248e-10
2.9099e-10
1.46138e-09
1.73757e-09
1.60975e-09
6.76725e-10
4.15158e-10
2.12745e-09
1.17761e-09
1.62219e-10
-1.90391e-11
-1.88802e-10
1.52976e-11
-4.5632e-11
8.45386e-11
3.11717e-10
4.79498e-11
1.02277e-10
-6.00406e-10
-5.74991e-09
-1.29797e-08
-1.002e-08
2.32739e-09
1.01651e-08
1.03342e-08
5.5848e-09
1.45281e-09
6.287e-11
-5.43325e-10
-1.30853e-09
-5.4596e-10
2.69375e-10
-3.08696e-10
-5.51707e-10
-3.63875e-10
-7.89986e-10
-9.32915e-10
5.35356e-11
8.079e-10
8.54969e-10
1.03257e-09
1.24079e-09
1.33408e-09
5.19793e-10
2.51447e-10
6.3511e-10
-2.26214e-10
2.86192e-10
1.01444e-09
1.29206e-09
1.01007e-09
-2.06307e-10
-8.44696e-10
-4.7768e-10
5.07474e-10
-8.49188e-10
-1.05139e-09
-6.19048e-10
-2.67242e-09
-7.37692e-09
-1.01656e-08
-4.55959e-09
6.75946e-10
-1.58585e-09
-1.26515e-09
3.43734e-10
1.2878e-10
-4.28183e-10
1.08531e-09
2.47932e-09
9.29839e-10
-2.02293e-10
-8.56125e-11
4.61307e-10
9.12724e-10
5.76748e-10
4.09668e-10
1.35262e-09
1.28313e-09
2.06571e-10
-2.14993e-11
3.74437e-12
-3.8307e-10
-8.32793e-10
2.698e-11
8.99421e-10
-6.8232e-12
-6.35667e-11
9.29416e-10
1.09132e-09
9.55727e-10
1.0879e-09
1.35313e-09
1.39128e-09
6.69705e-11
-9.33586e-11
-1.43769e-10
-3.97603e-11
-9.86838e-10
-2.21737e-09
-1.80641e-09
-7.96401e-10
-3.44632e-11
1.73663e-10
5.68151e-10
3.94869e-10
-1.18054e-09
-4.53246e-09
-1.1381e-08
-2.29694e-08
-3.37114e-08
-3.50368e-08
-2.36051e-08
-4.48035e-09
5.76996e-09
9.41883e-09
3.07191e-09
-2.50453e-09
-1.0263e-08
-1.40597e-08
-4.68313e-09
6.07187e-09
7.2542e-09
9.8456e-10
-1.75318e-08
-3.72845e-08
-3.87746e-08
-1.49107e-08
-4.2303e-09
-1.70233e-09
-8.05573e-09
2.37444e-10
-3.69863e-11
-2.4771e-11
-7.63242e-10
-3.71709e-11
9.96359e-11
2.25843e-09
4.52353e-09
1.97937e-10
-4.89343e-09
-4.05766e-09
-1.5036e-09
-1.30118e-09
3.5725e-09
1.38385e-08
2.54e-08
3.73525e-08
4.35157e-08
3.88412e-08
2.97012e-08
1.57686e-08
-2.78539e-08
-7.33737e-08
-5.55593e-08
-3.22546e-09
1.41973e-08
1.55481e-08
-4.08939e-09
-4.28401e-08
-7.738e-08
-7.5758e-08
-2.41151e-08
4.71086e-08
8.70054e-08
4.72028e-08
-6.43144e-08
-1.44171e-07
-1.02721e-07
-5.50681e-08
-8.42305e-09
2.78612e-08
6.59642e-09
-3.42065e-09
-4.17425e-09
-8.00897e-10
1.0815e-10
1.66523e-09
5.68783e-09
6.48318e-09
6.3885e-10
-3.37706e-09
-4.22632e-09
-6.71235e-09
-5.35476e-09
5.60444e-09
1.81991e-08
2.95629e-08
3.53069e-08
3.41337e-08
3.64543e-08
3.73976e-08
1.20836e-08
-3.57397e-08
-3.81706e-08
3.9093e-09
-1.5666e-08
-3.3048e-09
9.27712e-09
-1.35148e-09
-2.93394e-08
-4.36384e-08
-2.40317e-08
1.45325e-08
5.39375e-08
5.9602e-08
1.4233e-08
-4.31043e-08
-4.69608e-08
-3.00551e-08
-1.28282e-08
2.80641e-09
2.87413e-08
-3.94007e-09
-3.21618e-09
-4.53728e-10
-5.10483e-11
6.19769e-10
3.26626e-09
6.85856e-09
5.24796e-09
2.00782e-10
-1.77413e-09
-3.25438e-09
-6.88077e-09
-2.03096e-10
8.86077e-09
1.53369e-08
1.67232e-08
1.51148e-08
2.6463e-08
3.4927e-08
2.63215e-08
8.31145e-10
3.41768e-09
8.71976e-08
9.57859e-09
-1.36982e-08
-8.05659e-10
6.49344e-09
-1.45456e-09
-9.28497e-09
-4.57889e-09
5.92483e-09
2.14244e-08
3.32431e-08
2.40922e-08
1.43772e-09
-8.44151e-09
-2.01573e-08
-3.74071e-08
2.84942e-09
4.67547e-08
1.8065e-08
5.54012e-09
-4.42653e-10
2.38233e-10
9.77434e-11
5.91141e-11
2.49246e-09
5.87205e-09
1.99404e-09
-6.52744e-10
1.88249e-10
-3.93262e-09
-3.19205e-09
5.13475e-09
5.11028e-09
-6.5527e-09
-2.07663e-08
-7.86303e-09
1.57047e-09
3.29306e-09
3.56678e-09
-2.3702e-08
1.26481e-07
8.82133e-08
-3.19013e-09
-1.1709e-08
-1.0359e-08
-9.22329e-09
-3.75449e-09
4.42148e-10
4.48079e-10
1.33118e-09
3.70401e-09
4.6811e-09
1.79686e-09
-5.47067e-09
-5.50558e-08
-1.1638e-07
-1.49665e-08
6.86822e-08
6.44493e-08
4.56746e-08
-2.77277e-10
1.14926e-09
-2.46069e-11
-5.1976e-09
-5.765e-09
2.56303e-09
4.82987e-09
1.8627e-09
6.86129e-10
-8.75768e-10
-3.3865e-09
5.91455e-09
6.28868e-09
-1.93542e-08
-3.57704e-08
-1.07105e-08
2.72499e-10
-1.0869e-09
1.31966e-08
-5.34351e-08
8.04152e-08
1.75933e-07
2.53541e-09
-3.11709e-09
3.10824e-09
-2.72118e-09
-3.04546e-09
2.09959e-09
1.71774e-09
-3.7595e-09
-6.96392e-09
-1.03789e-09
3.03259e-09
1.99426e-09
-3.66389e-08
-1.55255e-07
-1.08277e-07
3.93143e-08
8.17171e-08
7.37875e-08
2.95221e-08
1.45345e-10
2.52724e-09
-1.04817e-08
-2.06711e-08
-9.86375e-09
2.05866e-09
4.88516e-09
1.13999e-08
-2.47167e-09
5.31957e-10
1.18495e-08
1.35e-08
-2.17314e-08
-2.5196e-08
7.52917e-09
9.20108e-09
1.01236e-09
9.62946e-09
-5.37983e-08
-1.2863e-08
2.15647e-07
4.20606e-08
1.67581e-08
2.20709e-08
1.00209e-08
1.10664e-09
3.7016e-09
5.65275e-09
-2.17684e-09
-1.29166e-08
-4.72912e-09
7.03159e-09
8.9425e-10
-8.42873e-09
-8.91268e-08
-1.4254e-07
-3.78204e-08
2.58982e-08
1.46465e-08
9.68735e-08
1.36385e-08
7.3241e-09
-5.74685e-09
-3.85432e-08
-3.36837e-08
-7.48741e-09
-5.72614e-09
2.65475e-08
1.66574e-08
-1.12178e-08
2.03062e-08
1.77609e-08
-1.80714e-08
4.65488e-09
2.96238e-08
1.18187e-08
1.90953e-09
9.45177e-10
-5.41828e-08
-1.12832e-07
1.56488e-07
1.06408e-07
2.15828e-08
1.77564e-08
8.57341e-09
2.60475e-09
4.53962e-09
9.59016e-09
1.07885e-08
8.35e-10
-5.85788e-09
8.03448e-09
1.22496e-09
-1.07768e-08
-3.05175e-08
-8.90219e-08
-8.23799e-08
-5.59099e-08
-9.03378e-08
9.68639e-08
8.01073e-08
1.21728e-08
4.97004e-09
-4.16743e-08
-4.88855e-08
-2.01253e-08
-2.54003e-08
-9.43953e-10
5.27139e-08
-1.27302e-08
9.42368e-09
1.37632e-08
-6.04239e-09
3.07347e-08
3.22196e-08
6.52767e-09
4.38666e-10
-4.71583e-10
-4.90186e-08
-1.68719e-07
2.63094e-08
1.2823e-07
1.26202e-08
2.02602e-09
2.49368e-09
1.77291e-09
5.52525e-09
1.16148e-08
1.91868e-08
1.7489e-08
4.07245e-09
5.54376e-09
7.64038e-09
-1.43395e-08
-1.91769e-08
-3.21506e-08
-6.00368e-08
-1.14622e-07
-2.01486e-07
-1.05226e-08
1.57101e-07
4.66868e-08
8.86118e-09
-3.42551e-08
-4.07264e-08
-3.00114e-08
-1.78895e-08
-5.20238e-08
2.28278e-08
2.15981e-08
-1.94872e-08
5.00799e-09
1.43698e-08
2.75058e-08
1.30593e-08
-4.39276e-09
-1.11538e-09
-9.86934e-10
-2.05897e-08
-1.46775e-07
-7.77597e-08
9.40956e-08
5.81131e-09
-1.62003e-09
-2.06368e-09
6.39999e-10
5.17274e-09
1.05723e-08
2.24308e-08
2.84586e-08
1.05791e-08
-3.4417e-09
2.81214e-09
-6.04436e-09
-1.57657e-08
-1.17388e-08
-2.302e-08
-1.15723e-07
-2.81181e-07
-1.3177e-07
1.44977e-07
1.15388e-07
3.49589e-08
-6.31194e-10
-3.21268e-08
-2.70549e-08
-5.20299e-09
-3.82874e-08
-4.30244e-08
2.13746e-08
-2.52016e-08
-1.22639e-08
2.46928e-08
8.42196e-09
-4.33138e-09
-9.00442e-09
-1.90783e-09
-2.82192e-09
-3.80616e-10
-7.23253e-08
-9.58542e-08
4.15442e-08
2.90753e-08
1.30992e-08
-3.06817e-09
1.05117e-09
2.78205e-09
6.51295e-09
2.04073e-08
3.27705e-08
1.29738e-08
-8.30117e-09
-3.64188e-09
-3.633e-09
-7.54676e-09
-4.74403e-09
-4.37466e-09
-7.05341e-08
-2.20453e-07
-2.00067e-07
6.42422e-08
1.2425e-07
6.60862e-08
5.23031e-08
-1.28308e-08
-1.55187e-08
-2.34989e-09
-6.73164e-09
-4.28028e-08
-2.93174e-09
-1.28357e-08
-1.64125e-08
1.38517e-08
1.22767e-09
-7.07004e-09
-5.12157e-09
-2.0925e-09
-4.83721e-09
-6.89142e-09
-2.79383e-08
-8.2093e-08
6.34717e-09
5.73895e-08
1.39553e-08
1.20488e-09
2.29669e-09
4.38499e-10
1.58997e-09
1.21857e-08
2.19563e-08
5.85378e-09
-1.57935e-08
-2.06775e-09
-1.18586e-09
-6.13639e-09
-2.24806e-09
1.28458e-09
-2.27224e-08
-7.44763e-08
-1.35291e-07
9.7053e-09
4.86591e-08
5.1093e-08
5.83534e-08
6.84782e-09
-2.72756e-09
1.74738e-10
-2.45229e-09
-1.37684e-08
-3.80453e-10
2.26355e-09
-1.38976e-08
9.98145e-09
8.71562e-09
-1.89321e-10
-2.54691e-09
-2.90722e-09
-4.31066e-09
-2.05571e-08
-3.05871e-08
-6.36847e-08
-1.99734e-09
2.9748e-08
-2.93795e-09
2.69841e-09
1.13125e-09
-3.95676e-09
-4.07926e-09
3.83306e-09
4.98603e-09
-9.82283e-09
-3.26754e-08
-1.05923e-08
4.36287e-09
-5.12268e-09
-3.88094e-09
1.09467e-09
-1.39005e-09
-1.06423e-08
-3.98967e-08
1.11881e-08
4.14262e-09
1.60452e-08
2.00369e-08
3.24343e-09
-8.39941e-11
2.03988e-09
2.64144e-09
-7.85664e-09
1.55721e-08
2.78828e-08
-8.28383e-09
4.39623e-09
1.25494e-08
3.15051e-09
-6.30341e-09
-5.83606e-09
-1.97701e-09
-2.11569e-08
-3.18568e-08
-2.72659e-08
3.48066e-09
-2.35289e-09
-6.87701e-09
-1.063e-09
-6.75489e-09
-7.81067e-09
-6.69422e-09
-1.7873e-09
3.99055e-10
-1.09523e-08
-3.66599e-08
-3.36469e-08
3.30865e-09
-5.44378e-10
-3.53121e-09
-1.90919e-09
4.07107e-10
-1.13918e-09
-3.86472e-09
1.6841e-09
-1.29108e-09
-1.55004e-09
-8.88361e-10
-1.3141e-09
-8.44641e-10
1.58882e-10
-3.07205e-10
-1.23935e-08
1.34439e-08
4.8123e-08
8.65963e-09
-3.34523e-09
7.04768e-09
-1.20236e-09
-1.3061e-08
-7.95918e-09
-1.51807e-09
-1.75099e-08
-4.04089e-08
-1.45144e-08
1.52456e-09
-3.83227e-11
3.55484e-09
-9.357e-09
3.15264e-09
7.13418e-09
-6.03371e-09
-6.95017e-09
1.30306e-10
-7.24516e-09
-2.0041e-08
-4.50601e-08
-1.16375e-08
4.8374e-09
-1.13315e-09
-1.62502e-09
-2.90476e-09
-1.14142e-09
1.33022e-09
-2.18684e-10
-1.62552e-09
-1.51306e-09
-2.28756e-10
4.04085e-10
3.37871e-12
-6.11391e-11
-7.74737e-09
-2.95892e-08
-4.54528e-09
5.4577e-08
3.112e-08
-6.99326e-10
9.44668e-10
-6.57423e-09
-1.15047e-08
-4.96564e-09
-2.57399e-09
-6.25395e-09
-4.54197e-08
-5.0706e-08
-8.26711e-09
7.55923e-09
-1.0414e-08
5.30308e-09
2.35792e-08
6.50523e-09
-3.99194e-09
-5.2306e-09
-1.6107e-09
-2.31145e-09
-1.68381e-08
-3.06203e-08
-3.50261e-08
3.33251e-09
2.04774e-09
-8.58228e-10
-2.69133e-09
-2.0342e-09
5.23266e-10
2.78854e-10
-1.03236e-09
-7.40777e-10
4.46477e-10
5.57246e-10
2.00369e-10
1.24446e-11
-9.29836e-09
-4.81505e-08
-3.80403e-08
3.94793e-08
4.34184e-08
8.9067e-09
3.25817e-09
-2.24449e-09
-7.17029e-09
-3.82972e-09
-1.7675e-09
-2.98944e-10
-1.50324e-08
-3.06383e-08
-7.99193e-09
9.30097e-10
1.72476e-09
1.6266e-08
6.95368e-09
-6.35908e-09
-7.38518e-09
4.14656e-09
4.36966e-10
4.85107e-10
-8.69984e-09
-1.51168e-08
-3.62325e-08
-1.74725e-08
2.46315e-09
-7.27825e-10
-1.4407e-09
-3.72936e-10
-2.47175e-11
9.94567e-12
-2.81064e-09
-1.7782e-09
2.96449e-09
1.51932e-09
4.64025e-10
8.53704e-11
-5.19022e-09
-4.27165e-08
-6.56842e-08
-9.89647e-10
3.91046e-08
1.55629e-08
1.42567e-08
7.79296e-09
-4.17486e-09
-3.88557e-09
-4.72415e-10
-2.96626e-11
-2.37364e-09
4.03027e-09
1.24241e-08
4.45799e-09
9.36473e-09
5.0456e-09
-1.46779e-08
-6.96569e-09
1.37322e-08
1.08026e-08
4.24646e-09
8.1189e-09
1.04867e-08
-4.19108e-09
-9.10591e-09
-3.23594e-08
-1.03626e-08
-9.20047e-10
-5.9552e-10
6.05513e-10
1.25645e-10
-4.09024e-09
-5.57295e-09
2.08227e-09
3.65721e-09
1.19303e-09
2.3912e-09
6.31218e-10
-1.44984e-09
-1.68824e-08
-4.08019e-08
-1.82886e-08
1.43459e-08
4.90335e-09
1.0906e-08
1.06177e-08
7.05303e-10
-1.91705e-09
1.06373e-10
3.11748e-10
2.92394e-09
5.67455e-09
-5.11202e-10
6.34512e-09
1.0084e-08
-3.84901e-09
2.52402e-09
6.73035e-09
1.59854e-09
1.40641e-09
-1.0786e-08
1.1476e-08
4.86383e-08
1.6251e-08
4.38611e-09
-7.07482e-09
-1.55923e-08
-1.59093e-09
1.19714e-09
2.367e-09
1.55366e-09
-2.8071e-09
-3.08871e-09
2.06219e-09
9.85702e-10
8.11554e-11
-9.46623e-11
-3.52569e-10
3.80383e-10
-3.88118e-09
-1.42112e-08
-5.6654e-09
2.69064e-09
-3.16678e-09
2.07207e-09
2.18156e-09
-1.02313e-09
-1.04397e-09
-1.34061e-10
1.42964e-10
1.98544e-10
-1.96737e-10
2.33089e-09
2.23214e-09
-1.33754e-09
1.39453e-09
2.38419e-09
3.58733e-10
-5.17934e-09
-4.04523e-09
-1.43971e-08
-5.64591e-08
-1.16355e-09
4.03567e-08
1.11063e-08
4.02989e-09
-2.48426e-09
8.9847e-10
3.73456e-09
2.95328e-09
1.24448e-09
5.48576e-10
2.19761e-11
-6.47619e-10
-1.69376e-09
-8.303e-10
3.9982e-10
1.05582e-09
1.12723e-09
-3.65688e-09
-4.94807e-09
4.22719e-09
8.09791e-09
2.10367e-09
-1.26762e-09
1.02625e-10
8.07636e-10
3.7674e-10
-3.7918e-10
-2.40928e-10
7.59132e-11
9.99435e-11
1.88421e-11
-1.36432e-10
4.38252e-10
-4.68711e-10
-2.1642e-09
3.09039e-10
2.6027e-09
-1.01968e-09
-6.57384e-10
-3.26759e-08
-7.82235e-08
-2.59683e-08
1.00081e-08
3.86593e-09
4.36681e-09
8.73643e-09
7.32641e-09
-6.59609e-10
-8.72832e-10
2.17941e-11
1.51633e-10
-7.3755e-10
-2.24476e-09
-1.26291e-09
-1.14005e-10
3.95927e-10
3.24248e-09
1.52499e-10
-2.54501e-09
1.27298e-09
3.22201e-09
1.26297e-10
-5.58592e-10
1.10615e-09
2.61905e-10
3.42748e-10
-7.02353e-11
3.04008e-10
3.35763e-10
4.91297e-10
5.90946e-10
-7.76078e-10
-1.69374e-09
-1.12717e-10
1.6954e-09
1.5228e-09
5.24092e-10
-4.58722e-10
9.37769e-11
-2.49416e-09
-2.55858e-08
-2.74259e-08
-5.6438e-09
2.90161e-10
7.28298e-10
2.40963e-09
1.29485e-09
-5.60643e-10
-6.34536e-10
4.61087e-10
6.50157e-10
2.59304e-10
6.14797e-10
2.32841e-10
-9.43697e-10
-2.09996e-10
7.78308e-09
1.34341e-08
6.51736e-09
3.04442e-10
-1.8261e-10
-1.81258e-09
5.19416e-11
3.35692e-09
9.92888e-10
-7.54389e-11
-2.06413e-10
-2.98274e-10
-3.6891e-10
-4.03601e-11
9.32628e-10
1.06761e-09
6.52642e-10
5.78864e-10
1.43275e-09
2.41368e-09
1.93347e-09
1.59437e-10
1.80334e-10
8.93829e-11
-3.89224e-09
-4.08666e-09
2.8489e-10
-9.79027e-12
-1.56419e-09
-1.58799e-09
-8.41698e-10
-1.20697e-09
-1.66459e-10
-1.94801e-10
-5.47747e-11
-3.58828e-10
-1.71033e-09
-4.47849e-09
-6.30748e-09
-6.83333e-09
-5.25843e-09
7.42516e-09
1.52324e-08
6.67194e-09
6.58929e-10
1.73532e-10
-1.58128e-10
-8.6528e-10
-1.41611e-09
-1.28779e-09
-4.42905e-10
-1.65512e-10
-2.40628e-10
3.22129e-10
5.87839e-10
5.09731e-11
2.82078e-10
8.04579e-10
4.80229e-10
4.27016e-10
4.20493e-10
-1.56496e-10
2.87259e-10
6.76427e-10
3.47853e-10
7.713e-10
2.04386e-09
7.66787e-10
-2.16299e-09
-3.72049e-09
-3.08777e-09
-1.14143e-09
-2.3625e-09
-1.25403e-09
-1.05983e-09
-3.57169e-09
-4.14786e-09
-3.9203e-09
-2.65934e-09
-9.21341e-10
-4.05288e-09
-5.7775e-09
-2.2257e-09
-2.22333e-10
-6.38669e-10
-7.16423e-10
1.12142e-09
2.77322e-09
3.21527e-10
-1.26398e-09
1.75297e-10
1.09475e-09
1.03212e-09
1.90216e-09
2.34343e-09
1.16838e-09
1.81057e-10
-4.96919e-12
-1.72147e-10
-4.9706e-10
-8.50907e-10
-9.82013e-10
-5.94986e-10
-1.83814e-10
5.07495e-10
9.49192e-10
1.74185e-09
2.83253e-09
2.8063e-09
2.02786e-09
7.87307e-10
-3.49909e-10
-1.62821e-10
1.09742e-10
-4.71798e-10
-1.57957e-09
-1.56271e-09
-9.44262e-10
4.36521e-10
1.04109e-09
6.46737e-10
-1.86483e-11
-5.12503e-10
-1.11724e-09
-3.77654e-09
-1.42802e-08
-2.48346e-08
-3.41656e-08
-4.9331e-08
-6.80933e-08
-4.16415e-08
1.52237e-09
2.38523e-09
4.03796e-10
-2.34166e-09
-2.23158e-11
1.81034e-09
2.17237e-09
3.49827e-09
2.66644e-09
-1.01496e-08
-3.48135e-08
-4.29277e-08
-2.39e-08
-5.16883e-09
-1.22746e-09
1.67441e-10
-2.03823e-09
-1.03717e-09
-4.09983e-12
-4.27766e-10
-1.19074e-08
-9.13307e-09
-4.01024e-09
2.12044e-09
4.63353e-09
2.13365e-09
-1.30224e-09
-2.15797e-09
7.96393e-10
5.91598e-09
1.44251e-08
2.73794e-08
4.04155e-08
4.75309e-08
4.75645e-08
5.31386e-08
7.22065e-08
8.43802e-08
1.37571e-08
-1.27707e-07
-1.48656e-07
-5.459e-08
-7.899e-09
-3.29342e-08
-5.19718e-08
-5.56659e-08
-3.95896e-08
-3.53866e-09
5.06465e-08
9.87911e-08
7.72476e-08
-2.74304e-08
-1.08549e-07
-8.78805e-08
-3.37254e-08
-1.03841e-08
3.55789e-09
2.0722e-09
-2.46818e-09
-9.78149e-09
-1.3555e-08
-1.18044e-08
-6.16291e-09
2.24093e-09
7.16114e-09
4.99188e-09
1.62042e-09
-9.20394e-10
-1.51315e-09
8.24916e-10
6.88465e-09
1.69084e-08
2.6998e-08
3.05348e-08
3.31038e-08
4.24306e-08
6.19802e-08
9.09834e-08
9.51251e-08
1.63154e-09
-9.0652e-08
-4.71097e-08
2.22856e-08
-1.73595e-08
-4.25025e-08
-4.06213e-08
-2.71571e-08
-5.39151e-09
2.51193e-08
6.52867e-08
8.19653e-08
3.91057e-08
-2.44819e-08
-4.21445e-08
-1.99592e-08
-4.00914e-09
-9.53854e-10
-9.30099e-09
-4.91806e-09
-4.75014e-09
-2.41034e-09
-5.28975e-09
-2.30083e-09
1.31035e-09
3.54465e-09
2.18315e-09
2.35231e-10
-1.81692e-09
-3.0378e-09
-2.08521e-09
7.97489e-10
5.5605e-09
1.20503e-08
1.45596e-08
1.79406e-08
2.87775e-08
3.81289e-08
4.97364e-08
6.52375e-08
3.58848e-08
-1.53886e-08
8.40687e-10
8.03365e-08
3.21685e-08
-2.05284e-08
-2.632e-08
-1.46221e-08
-4.91459e-09
5.33104e-09
2.44463e-08
4.33132e-08
3.53511e-08
1.00404e-08
-3.20227e-09
-4.54135e-09
-6.44168e-09
-8.30677e-09
-1.06971e-08
-1.14281e-08
2.36846e-08
4.54191e-08
-2.22464e-09
-1.29334e-09
4.17715e-10
1.38455e-09
8.88439e-10
8.02499e-11
-1.35509e-09
-2.48198e-09
-1.16943e-09
3.28469e-10
1.96743e-09
4.70144e-09
4.536e-09
5.13649e-09
1.25751e-08
1.09035e-08
7.83236e-09
1.47986e-08
5.46042e-09
2.6773e-09
-1.38632e-08
6.33846e-08
1.03382e-07
2.38428e-08
-2.03389e-08
-6.57019e-09
-1.26659e-09
5.61877e-10
3.73803e-09
8.81733e-09
5.14226e-09
-1.7435e-09
-2.76059e-09
-1.72069e-08
-4.79608e-08
-4.18846e-08
-5.46418e-09
2.36354e-09
6.03768e-08
1.84879e-07
2.20112e-08
-2.64659e-09
-3.31304e-10
3.26414e-10
2.77072e-10
1.01506e-09
9.11308e-10
-2.05591e-09
-2.58497e-09
1.22908e-11
1.31472e-09
1.54552e-09
2.0849e-09
9.72387e-09
1.66725e-08
3.90385e-09
-1.88055e-09
5.4071e-09
4.02137e-09
4.70946e-09
-1.43751e-08
1.18544e-08
1.35754e-07
6.35129e-08
-1.59166e-08
-7.22874e-09
-2.92303e-09
-1.17657e-10
-7.10203e-10
-1.65144e-09
-4.63226e-09
-5.3706e-09
-6.37236e-11
-9.47718e-09
-5.31757e-08
-8.27382e-08
-4.97731e-08
-1.46407e-08
4.27444e-08
3.10357e-07
1.58923e-07
1.82139e-10
-1.45744e-09
-4.03454e-10
-7.82237e-10
7.88856e-10
3.52655e-09
3.18222e-09
-2.16879e-09
-4.18373e-09
-9.12622e-10
-2.86958e-09
-9.11398e-10
1.8522e-08
1.79567e-08
-2.88016e-09
-2.5098e-09
2.03887e-09
6.90536e-09
1.13731e-09
4.71686e-10
1.18388e-08
1.22083e-07
8.86789e-08
1.71112e-09
-4.35743e-09
-2.48022e-09
-5.95805e-10
-1.2071e-09
-3.34404e-09
-6.37633e-09
-5.35418e-09
6.3682e-09
2.95191e-09
-2.82768e-08
-7.37202e-08
-8.78332e-08
-9.74991e-08
-2.7832e-08
2.35721e-07
4.53718e-07
3.9829e-08
-8.13591e-10
-6.3225e-10
-1.23389e-09
-9.72149e-10
2.61772e-09
3.45425e-09
6.54593e-09
-1.05303e-09
-4.95337e-09
-1.17648e-08
-9.33789e-09
1.51652e-08
5.85704e-09
-6.07724e-09
1.43201e-09
-6.40779e-12
7.77209e-09
-1.93829e-09
-6.45652e-09
3.2913e-08
7.69297e-08
8.7351e-08
9.8465e-09
-8.56049e-11
1.05838e-09
1.56469e-09
2.83904e-09
4.29426e-09
4.18407e-10
-8.01078e-09
1.96466e-09
1.07696e-08
-9.34014e-09
-3.96019e-08
-7.88835e-08
-1.82326e-07
-1.66404e-07
1.1374e-09
6.46811e-07
1.92853e-07
4.58802e-09
2.38784e-09
-1.32121e-09
-3.81685e-09
-2.40451e-09
1.42163e-10
-2.86464e-09
1.54568e-08
9.93922e-10
-1.73109e-08
-1.28877e-08
2.48653e-09
-4.02028e-09
-2.17272e-09
6.35784e-09
-1.42603e-09
7.02127e-09
-7.99099e-09
-1.7672e-08
1.69695e-08
4.68672e-08
7.4029e-08
8.20783e-09
1.94026e-09