/*--------------------------------*- C++ -*----------------------------------*\
| =========                 |                                                 |
| \\      /  F ield         | OpenFOAM: The Open Source CFD Toolbox           |
|  \\    /   O peration     | Version:  5.0                                   |
|   \\  /    A nd           | Web:      www.OpenFOAM.org                      |
|    \\/     M anipulation  |                                                 |
\*---------------------------------------------------------------------------*/
FoamFile
{
    version     2.0;
    format      ascii;
    class       volScalarField;
    location    "50.4676134421789371";
    object      Tdiffuw;
}
// * * * * * * * * * * * * * * * * * * * * * * * * * * * * * * * * * * * * * //

dimensions      [0 2 -3 0 0 0 0];

internalField   nonuniform List<scalar> 
60000
(
8.3669e-10
-2.32642e-11
-1.64659e-10
-2.35296e-10
-3.13284e-10
1.21915e-11
-1.66383e-11
-8.12996e-11
-1.51622e-10
1.55647e-10
7.14293e-10
4.08379e-10
1.67101e-10
3.05237e-10
4.26192e-10
7.32595e-10
1.44509e-09
1.62444e-09
6.0682e-10
-5.48803e-10
1.547e-09
6.23467e-09
5.09414e-09
-5.30802e-09
-1.48945e-08
-1.4498e-08
-1.00837e-08
-6.18593e-09
-1.60863e-09
-6.91676e-10
-9.08243e-10
-5.2648e-10
-1.62446e-09
-3.4117e-09
-3.10734e-09
-7.1572e-10
-1.59731e-10
3.38609e-11
7.40159e-10
1.48011e-09
-1.02399e-09
3.92549e-11
-2.25059e-10
-4.31474e-10
-1.32146e-10
1.67409e-11
1.46157e-10
1.13181e-10
7.20347e-11
-2.9664e-09
-7.33713e-09
-6.35484e-09
-1.544e-09
5.7318e-10
2.86386e-10
1.33654e-09
4.04222e-09
2.54719e-09
4.63633e-10
1.30878e-08
1.87016e-08
2.86e-08
2.52291e-08
3.66603e-09
-1.39417e-08
-1.81983e-08
-1.02765e-08
-9.83103e-09
-1.39362e-08
-1.07006e-08
-6.77773e-09
-6.97295e-09
-2.38604e-09
6.30526e-09
7.54236e-09
1.93927e-09
-1.44482e-09
2.09227e-09
9.45576e-10
-1.35741e-09
-2.14539e-09
-2.16722e-09
-5.59812e-10
-1.25358e-10
-3.21946e-10
-7.18366e-10
-1.40886e-10
7.50837e-10
2.57982e-09
1.62612e-09
-3.63111e-09
-6.57272e-09
-4.34664e-09
-7.49023e-10
-1.50462e-09
-1.2951e-09
1.70667e-09
1.89868e-09
4.72386e-10
5.79964e-09
-3.3536e-09
4.19513e-09
1.5562e-08
-3.86851e-09
-6.71175e-09
-1.0246e-08
-7.47785e-09
-1.16951e-09
1.23104e-11
3.93296e-10
5.93753e-10
-7.29346e-10
-3.37369e-11
4.02436e-09
5.60859e-09
2.6714e-09
-5.57478e-10
1.19307e-09
3.33618e-09
-5.38536e-10
-1.64744e-09
-6.44208e-10
-6.29308e-10
-2.15905e-10
-9.40434e-10
-1.50346e-09
-5.07061e-10
1.21211e-09
1.39674e-09
1.90417e-09
-2.96829e-09
-3.00652e-09
-2.68251e-09
-2.33081e-10
-2.84571e-10
1.46565e-09
4.24042e-09
-4.09476e-10
-1.62892e-09
9.76411e-09
-2.42012e-08
-4.37284e-08
6.12811e-09
-1.77298e-08
6.57284e-10
1.45662e-09
-5.42932e-09
-2.26274e-09
9.54552e-11
1.87015e-09
2.59367e-09
2.58285e-09
2.67323e-09
4.62699e-09
4.66401e-09
6.22742e-10
-4.85462e-10
-1.37266e-09
2.58353e-09
-9.53031e-10
-2.88033e-09
2.86694e-09
1.46317e-09
-5.05378e-10
-1.03819e-09
-2.16137e-09
-1.05876e-09
2.19532e-09
1.22788e-09
2.19318e-09
-3.16795e-09
-3.31074e-09
-9.23354e-11
-2.30639e-10
2.22023e-09
1.02569e-08
1.84895e-08
5.80966e-09
-5.0738e-09
1.19647e-08
-6.41716e-09
-9.33249e-08
5.66452e-09
-4.34909e-08
-8.59125e-09
2.83383e-09
-5.54149e-09
-1.53733e-09
-1.37851e-09
-2.73989e-09
-1.50062e-09
5.16343e-10
1.78452e-09
2.97677e-09
3.80789e-09
-1.8328e-09
-2.46583e-09
-1.05028e-09
-2.81306e-10
1.41778e-10
-3.4946e-09
-1.99565e-10
2.85324e-09
3.08859e-10
-2.91869e-10
-1.37145e-09
-2.37784e-09
4.74306e-10
2.86281e-09
1.03114e-09
-1.16813e-09
-1.0059e-08
-2.30279e-09
3.40228e-10
5.25456e-09
2.04206e-08
3.79249e-08
1.57356e-08
-5.1269e-09
-5.80319e-09
2.62723e-08
-1.11807e-07
-1.90469e-08
-4.01777e-08
1.02968e-08
1.34035e-08
-2.95586e-09
-1.09732e-09
-3.31787e-10
-2.93057e-09
-2.50362e-09
-1.2582e-09
-7.20698e-10
-1.59486e-09
-4.80765e-10
-3.6993e-10
-4.74616e-09
-3.94359e-09
-3.94664e-09
1.78658e-10
-2.7921e-09
-5.3964e-09
-2.20804e-10
6.64493e-11
1.13511e-10
2.95005e-11
-1.78159e-09
-2.80575e-09
2.13673e-09
3.21322e-09
-4.05594e-10
-1.90997e-08
-5.14731e-09
4.3645e-09
2.23084e-09
2.53422e-08
4.36929e-08
1.9658e-08
3.08862e-09
-2.48626e-08
1.53871e-08
-6.81901e-08
-6.37679e-08
3.65544e-10
3.75408e-08
1.33583e-08
-2.75243e-09
-1.24353e-09
5.8659e-10
-8.6084e-11
-8.79885e-10
3.42065e-10
1.40703e-10
-2.88057e-09
-6.31262e-09
-3.59387e-09
-2.28562e-09
-5.12785e-09
-7.5203e-09
-3.19271e-09
-2.07842e-09
-6.11701e-09
-3.01938e-09
-2.00393e-10
-8.89399e-11
1.2769e-10
3.51184e-10
-2.02594e-09
-2.44473e-09
8.04393e-09
6.54129e-09
-2.02287e-08
-1.32518e-08
9.28491e-09
-1.24779e-08
1.53011e-08
2.45207e-08
1.15437e-08
7.52235e-09
-1.39813e-08
-2.14253e-08
-7.65332e-09
-7.0553e-08
2.52538e-08
3.44982e-08
6.21685e-10
-5.17078e-09
-1.42433e-09
2.82105e-10
1.03085e-09
1.66221e-09
2.5663e-09
4.67297e-09
3.2762e-09
-5.66761e-09
-8.06247e-09
-3.02869e-09
-3.24628e-09
-9.84285e-09
-9.36374e-09
-4.71948e-09
-2.66484e-09
-1.03793e-09
1.0447e-10
2.80891e-10
-1.49282e-10
2.78394e-10
1.42828e-09
-3.27514e-09
4.1641e-09
1.81663e-08
-1.15898e-08
-1.32155e-08
9.33401e-10
-2.19618e-08
-2.71733e-10
-4.9329e-09
-1.90456e-09
2.5817e-09
6.11165e-09
-1.55618e-08
2.38242e-08
-2.34551e-08
5.78179e-09
9.48096e-09
-1.12823e-08
-7.99017e-09
-1.76289e-09
-2.58833e-10
1.2272e-09
3.55028e-09
5.78876e-09
9.40368e-09
1.2117e-08
2.15956e-09
-7.47787e-09
-5.13972e-09
-2.33631e-09
-7.57501e-09
-1.47806e-08
-1.24016e-08
1.03477e-09
1.86397e-09
6.81784e-10
-5.23377e-10
-3.00115e-10
-5.76433e-10
3.81938e-11
1.14832e-09
-5.06172e-09
2.16975e-08
-3.3704e-09
-1.32006e-08
3.47583e-09
-1.21117e-08
-9.49929e-09
-1.72207e-08
-6.96882e-09
-2.3516e-10
5.763e-09
1.18325e-08
3.62741e-08
1.97969e-08
-1.89687e-08
-1.10055e-08
-1.58009e-08
-7.4737e-09
-2.21542e-09
-7.81369e-10
1.77795e-09
5.35694e-09
7.82893e-09
1.17101e-08
1.55992e-08
8.35559e-09
-3.37733e-09
-4.9957e-09
-3.14108e-09
-3.81538e-09
-1.2695e-08
-1.95267e-08
-1.91813e-09
2.28749e-09
2.14412e-10
-2.90391e-10
4.43449e-10
-4.54073e-10
-5.84801e-10
5.17223e-10
-1.87508e-09
5.52783e-09
1.18207e-08
-2.6291e-08
4.78089e-09
-1.65415e-10
-1.3807e-08
-1.08119e-08
-6.02201e-09
-1.62397e-09
-9.47653e-11
1.24381e-08
3.02895e-08
2.72184e-08
-1.75076e-08
-1.22251e-08
-9.77114e-09
-3.0163e-09
-2.3383e-09
-9.61858e-10
2.35535e-09
7.8922e-09
9.80082e-09
1.15448e-08
1.58874e-08
9.3688e-09
-7.46677e-10
-3.09643e-09
-2.5436e-09
-1.94338e-09
-6.04615e-09
-1.73238e-08
-1.01743e-08
7.23292e-10
-5.63644e-10
2.08839e-09
2.37832e-09
3.20507e-10
9.57024e-11
-4.79794e-10
-8.19977e-10
-1.91232e-09
1.13389e-08
-2.02439e-08
-1.1281e-08
1.31958e-08
-1.09121e-08
-7.97364e-09
-7.35565e-09
-4.24531e-09
-3.34812e-09
2.21853e-09
1.38569e-08
1.3848e-08
-3.78028e-09
-4.59305e-09
4.90814e-09
1.60147e-09
-1.29934e-09
-7.1488e-10
2.07131e-09
1.00119e-08
1.49821e-08
1.11994e-08
1.63015e-08
1.23659e-08
2.80838e-10
-2.01906e-09
-1.49997e-09
-1.27705e-09
-1.91046e-09
-8.3989e-09
-1.12733e-08
-2.47904e-10
2.46348e-11
2.01985e-09
2.47265e-09
7.71217e-10
6.5548e-11
-1.37317e-10
-7.5555e-10
-6.14632e-09
6.88978e-09
-9.01456e-09
-2.47035e-08
2.00429e-08
-2.97468e-09
-1.0238e-08
-9.32946e-09
-6.63173e-09
-3.69359e-09
-2.56866e-09
5.70178e-09
3.72979e-09
2.06158e-09
7.89864e-09
1.47987e-08
2.65454e-09
-4.50808e-10
-3.19333e-10
9.35359e-10
8.39582e-09
1.99371e-08
1.26089e-08
1.20211e-08
1.86216e-08
3.97538e-09
-1.80242e-09
-9.87384e-10
-9.89128e-10
-1.69953e-09
-4.11856e-09
-4.44939e-09
-2.53173e-10
5.12101e-10
2.7766e-11
7.51693e-10
4.13945e-10
-5.43076e-10
-4.78375e-10
1.23267e-10
-6.34296e-09
-1.31295e-10
7.26575e-09
-2.74931e-08
8.80805e-09
5.17718e-09
-7.35578e-09
-8.26223e-09
-6.75177e-09
-2.40311e-09
-1.70091e-09
6.43128e-09
7.02736e-09
3.66483e-09
1.28988e-08
9.90457e-09
-6.94129e-10
-6.05799e-10
-3.49142e-10
-3.1212e-10
3.06459e-09
1.57102e-08
1.63859e-08
-1.04988e-09
1.85321e-08
1.28035e-08
-8.49267e-10
-5.40246e-10
-5.96249e-10
-2.53967e-09
-3.42787e-09
-4.16795e-10
-3.0605e-11
-2.89549e-10
-6.50417e-10
-4.29546e-10
-4.81241e-10
-8.19433e-10
-5.79918e-10
-1.18346e-10
-2.50906e-09
-6.03382e-09
1.68643e-08
-1.32264e-08
-5.71977e-09
5.80422e-09
1.21606e-10
4.34419e-09
-3.60271e-09
-3.10571e-09
-4.56993e-09
-6.83343e-09
1.17362e-08
7.67082e-09
7.35572e-09
2.38294e-09
-2.00045e-10
5.3072e-10
-4.1025e-10
-1.05359e-09
-8.6235e-10
4.74423e-09
1.76134e-08
-5.06863e-09
-3.1757e-09
2.14592e-08
4.64056e-09
-6.32541e-10
5.41625e-10
-1.7225e-09
-2.72806e-09
-9.09942e-10
4.99182e-12
2.42101e-10
-1.2999e-10
-1.16985e-09
-8.67429e-10
-1.99962e-10
3.1383e-10
-1.35642e-10
-8.42691e-10
-3.94913e-09
1.28639e-08
2.75823e-09
-7.09228e-09
-1.85404e-10
5.67511e-09
1.1466e-08
1.04523e-09
-2.05398e-09
-1.93699e-10
-1.93029e-08
-8.66838e-09
5.51946e-09
-5.00705e-11
4.36569e-10
7.08732e-09
3.15327e-09
-5.112e-10
-1.60606e-09
-4.01349e-09
-3.391e-09
9.24468e-09
7.88298e-09
-2.60097e-08
5.35432e-09
1.32876e-08
6.3629e-10
5.94327e-10
-2.94651e-10
-1.05946e-09
-3.93174e-10
9.99135e-10
4.27763e-10
-7.61852e-10
-1.1918e-09
-2.52691e-10
-1.87142e-10
-2.93039e-10
-1.93522e-10
-1.90111e-09
-3.43722e-09
6.25085e-09
9.12144e-09
-2.46739e-09
9.98764e-10
5.63281e-09
2.50748e-09
-1.92526e-10
-3.03669e-10
1.83021e-09
-5.99302e-09
-1.15312e-08
1.06785e-09
-2.37085e-09
4.02813e-09
7.66814e-09
-9.2886e-10
-4.1503e-09
-1.26921e-09
-1.01168e-09
-4.32588e-09
1.6861e-09
1.08034e-08
-1.86649e-08
-2.6504e-08
5.51334e-09
7.63063e-10
-6.28744e-10
6.73363e-10
1.43814e-09
2.51147e-09
2.6095e-09
3.47414e-10
-1.41359e-09
-3.37057e-10
9.54672e-10
-1.05057e-09
-1.43842e-09
-2.65867e-10
-2.24621e-09
-3.76329e-09
4.75716e-09
8.82083e-09
4.68314e-11
6.12932e-09
-1.14755e-09
-4.67921e-09
-1.4416e-09
-7.21976e-10
4.4391e-10
1.61593e-10
4.49597e-10
5.174e-09
3.68693e-09
4.95414e-09
1.67992e-09
-3.88359e-09
-2.14969e-09
5.9925e-10
2.31851e-09
-1.78184e-09
-2.68332e-09
5.02419e-09
-3.90313e-09
-3.09091e-08
-1.68339e-08
-7.13811e-09
-5.89904e-09
-2.59636e-10
1.3528e-09
3.09405e-09
2.16068e-09
-8.03768e-10
-2.08686e-09
-7.25302e-10
-1.80577e-09
-3.9505e-09
-4.96688e-10
1.01895e-09
-1.3778e-09
-5.55326e-09
-2.27309e-11
3.04231e-09
1.68357e-09
1.23136e-09
-2.94286e-09
-1.64366e-10
-1.65813e-09
-1.62594e-09
3.2873e-10
3.83221e-09
6.96267e-09
2.89745e-09
2.6626e-09
8.01592e-11
6.86638e-11
-1.54431e-09
-3.75994e-09
-3.72458e-10
2.20484e-09
-3.22717e-09
-7.91052e-09
1.97857e-09
6.42387e-09
-1.45697e-08
-2.37689e-08
-1.09732e-08
-6.40554e-09
-2.12928e-09
1.74017e-09
5.98438e-09
7.88942e-09
1.48133e-09
-2.70359e-09
-2.20612e-10
-4.1005e-09
-3.07802e-09
2.26247e-09
1.9474e-09
2.19033e-09
-1.11569e-09
-4.10163e-09
-1.47485e-09
1.27347e-10
-1.25405e-09
8.75922e-10
2.93645e-09
3.68059e-10
-9.43402e-10
-5.52336e-11
3.5479e-10
4.96422e-10
-4.07817e-10
4.69219e-10
9.43886e-10
7.06279e-11
-1.36541e-10
-1.70806e-09
-4.58175e-09
-1.87119e-09
-4.23463e-09
-3.14593e-08
-2.9791e-08
3.01807e-09
4.08591e-09
-8.95998e-09
-4.25848e-09
9.37701e-10
1.06314e-09
2.12069e-09
2.62791e-09
4.13413e-09
6.16203e-10
-4.7392e-10
2.51718e-10
-1.43759e-09
-6.34203e-10
2.42221e-09
1.43146e-09
2.05667e-09
1.74254e-09
-2.91466e-09
-2.67082e-09
-4.59977e-11
7.21474e-11
-1.04195e-10
5.71082e-10
8.17776e-10
1.87069e-10
-4.28503e-10
-2.21153e-10
2.42562e-10
2.17231e-10
1.28944e-10
-7.96029e-11
6.32075e-11
9.23248e-10
1.14126e-09
-1.49979e-09
-4.38544e-09
-9.03703e-10
-1.0168e-08
-3.36904e-08
-2.02293e-08
1.56742e-09
-4.37611e-10
3.1543e-09
6.52908e-09
4.32188e-09
-2.59724e-10
-6.97342e-10
7.49972e-11
9.9248e-11
2.08122e-10
5.36183e-10
7.10229e-10
-6.88205e-10
-1.53682e-09
-6.9002e-10
7.77701e-10
1.9058e-09
-1.79782e-09
-2.3392e-09
4.13746e-10
1.40298e-09
-5.45152e-10
-1.37186e-09
-8.5211e-10
-3.54492e-10
-8.51741e-10
-1.1315e-09
-8.1278e-12
7.05011e-10
1.18066e-09
1.07772e-09
5.70205e-11
-5.956e-10
-6.83464e-10
-1.76942e-09
-3.27841e-09
-2.62945e-09
-1.67792e-09
-8.01623e-09
-1.03795e-08
-2.56451e-09
3.46654e-10
3.32942e-10
2.09545e-09
1.66812e-09
-2.40519e-10
2.95685e-10
3.86599e-10
1.81079e-10
3.70882e-10
1.3958e-09
1.35888e-09
-1.25531e-09
-7.82972e-10
1.80017e-09
1.2062e-09
-8.45559e-10
-5.47683e-10
1.90545e-10
-8.08442e-10
-2.67324e-09
-3.53428e-09
-8.20494e-10
4.0219e-10
8.94465e-12
-3.8725e-11
5.75488e-10
1.59237e-09
1.79076e-09
1.98292e-09
2.14992e-09
1.60066e-09
1.26404e-09
1.64669e-09
8.59596e-10
-8.16214e-10
-8.96385e-10
-3.22167e-10
-2.14772e-09
-3.75522e-09
-1.22841e-09
7.87647e-11
-1.677e-10
7.57636e-11
-8.32785e-11
-7.30245e-11
-1.62934e-10
1.10934e-10
2.96441e-10
3.06393e-10
1.98273e-09
1.57334e-09
-4.7786e-09
-6.20018e-09
1.07634e-09
4.64255e-09
6.89014e-10
-1.49703e-09
9.8957e-11
2.42795e-10
-6.13292e-10
-5.34109e-10
1.01146e-09
1.59421e-09
6.68015e-10
-1.4653e-10
-2.28512e-10
-2.55807e-10
-5.23945e-10
-5.71888e-10
-8.33309e-11
3.2036e-10
1.02725e-09
2.47533e-09
1.93926e-09
-2.39395e-10
-8.30316e-10
-1.32865e-09
-1.36339e-09
-1.32935e-09
-5.49844e-10
5.89655e-10
2.67952e-10
-2.9248e-10
-2.17077e-10
-8.1826e-10
-9.84416e-10
-7.86877e-11
2.50027e-10
1.35005e-09
3.60751e-09
2.91911e-09
-2.75582e-09
-7.20187e-09
-4.54496e-09
-1.85934e-10
1.53848e-09
1.22264e-09
1.18836e-09
2.28034e-10
-1.94496e-09
-1.66391e-09
8.43438e-11
4.48093e-10
-3.29388e-10
-1.03413e-09
-6.49276e-10
1.88186e-10
-1.88084e-10
-3.65609e-10
4.59831e-10
5.35293e-10
8.4854e-10
2.22465e-09
1.67476e-09
-8.32626e-10
-1.25072e-09
-1.48461e-09
-2.12482e-09
-5.97911e-10
7.97496e-10
1.65357e-09
1.52015e-09
9.28333e-10
3.13038e-10
1.06453e-10
1.69331e-10
1.07327e-10
3.45804e-12
7.94608e-12
1.81987e-10
4.11612e-10
2.69352e-10
9.83906e-11
-1.86426e-11
-7.18709e-11
-3.60368e-10
-6.93013e-10
-6.30845e-10
-3.23856e-10
-8.3495e-10
-2.90855e-09
-2.49503e-09
2.03996e-09
1.24282e-10
-1.99287e-09
1.45153e-09
3.98883e-09
4.31343e-09
2.80352e-10
-2.36365e-09
-6.92534e-10
7.11061e-10
-5.86597e-10
-3.27533e-09
-3.14456e-09
1.38979e-09
5.32194e-09
2.91264e-09
-3.52751e-10
-7.88505e-10
-8.49771e-10
2.88609e-10
-1.90704e-10
-8.27313e-11
-6.10745e-10
3.22362e-10
2.0126e-10
-2.67648e-11
-7.87984e-11
-2.79369e-10
8.00702e-10
1.55307e-09
5.59512e-10
-1.21536e-09
-7.16059e-10
1.43689e-09
3.16647e-09
5.89436e-09
1.20526e-08
1.91294e-08
1.23946e-08
-1.51567e-08
-3.02266e-08
-5.34034e-09
2.08187e-08
1.58233e-08
1.63268e-08
2.17935e-08
5.80647e-09
-1.37369e-08
-2.34642e-08
-2.37128e-08
-1.83556e-08
-1.70487e-08
-2.26861e-08
-2.14729e-08
-3.50777e-09
1.59215e-08
1.3016e-08
-4.5394e-10
-2.87506e-10
2.95319e-09
-2.63318e-09
-3.09234e-09
-2.24355e-09
-2.34474e-10
1.95897e-10
2.44075e-10
7.05581e-10
2.57142e-10
-5.51345e-10
4.40471e-10
6.98766e-10
-3.05452e-09
-4.6006e-09
-1.55884e-09
1.49956e-10
1.50768e-09
7.21939e-09
1.65588e-08
1.70788e-08
4.49201e-11
-2.07635e-08
-8.76609e-09
2.33673e-08
2.10108e-08
-1.73791e-08
3.22848e-10
-3.76642e-09
-1.79809e-08
-2.36356e-08
-1.75864e-08
-7.51237e-09
-4.23694e-09
-7.81296e-09
-1.0359e-08
-6.13574e-09
3.21745e-09
6.37472e-09
2.5386e-09
6.41084e-10
8.29423e-10
-6.8151e-10
-5.48562e-09
-3.91688e-09
-2.50521e-10
4.78202e-11
1.88715e-10
1.05151e-09
1.44632e-09
8.84733e-10
8.52787e-11
9.80119e-10
-2.03205e-09
-7.36525e-09
-2.58746e-09
-4.33807e-10
-7.37466e-10
5.94112e-09
1.53543e-08
1.43751e-08
6.88848e-09
-2.20593e-09
-3.35865e-09
1.7366e-08
6.1769e-08
-2.91638e-08
-1.93501e-08
-1.33577e-08
-1.33237e-08
-1.12334e-08
-5.8118e-09
-4.8389e-10
4.38611e-10
-2.0916e-09
-4.20375e-09
-3.03631e-09
6.26666e-10
2.22166e-09
2.85361e-09
1.89843e-09
2.65878e-09
1.99142e-09
-4.0444e-09
-9.11772e-09
-7.24084e-10
4.88086e-10
1.03744e-10
9.48448e-10
1.31282e-09
2.36512e-09
1.88075e-09
1.67565e-09
2.64649e-09
-6.94303e-09
-6.2963e-09
-8.19863e-10
-3.03402e-09
7.72367e-09
2.01787e-08
1.16156e-08
3.05817e-09
8.45746e-10
3.16599e-11
-2.49818e-08
8.48553e-08
-7.28116e-09
-3.37761e-08
-2.91888e-08
-2.15789e-08
-1.26427e-08
-3.8422e-09
-1.06331e-09
2.39072e-10
1.33307e-09
6.90149e-10
6.13606e-10
2.0298e-09
2.8264e-10
-2.84847e-09
1.66378e-09
7.47293e-09
5.2111e-09
2.58757e-09
-7.10905e-09
-8.21667e-09
6.59423e-10
1.16725e-10
1.16216e-09
7.80878e-10
1.17824e-09
3.78863e-09
2.84671e-09
7.05958e-09
1.71142e-09
-9.06809e-09
-4.05077e-09
-5.81717e-09
6.52311e-09
1.90779e-08
4.46831e-09
-4.87546e-10
-3.1899e-11
5.7469e-09
-5.2119e-08
3.75348e-08
1.78146e-08
-5.35344e-08
-2.59532e-08
-6.08174e-09
-7.45809e-09
-3.63934e-09
-1.39574e-09
-1.58163e-10
2.16012e-09
1.93989e-09
1.2324e-09
1.34845e-09
-4.47976e-10
-7.53703e-09
-9.34261e-09
1.86935e-09
1.04554e-08
9.77237e-09
9.17891e-09
-1.92018e-08
-1.99045e-09
-2.68105e-10
2.4931e-09
2.23617e-09
-9.77185e-10
1.85314e-09
1.8737e-09
6.07526e-09
1.29145e-08
-1.79872e-09
-7.56732e-09
-7.64646e-09
2.36278e-09
2.76104e-10
-1.47188e-08
-5.86357e-09
1.52594e-09
4.35199e-09
-4.08946e-08
-3.76489e-08
2.40537e-08
-5.45051e-08
-3.46603e-09
2.44668e-08
5.976e-09
-1.30395e-09
-8.42825e-10
1.35049e-10
1.34866e-09
1.32469e-10
1.6563e-09
4.94502e-09
-1.62962e-09
-8.24792e-09
-1.42663e-08
-1.14187e-08
6.56748e-09
1.26534e-08
2.28566e-08
-1.18622e-08
-1.02424e-08
-5.44938e-10
3.74824e-09
7.27478e-09
-1.94895e-10
4.01964e-10
-1.46032e-09
-9.38918e-09
1.42594e-08
1.26249e-08
-9.78834e-09
-5.41514e-09
6.58246e-10
-2.46062e-08
-3.00113e-08
-7.83585e-09
3.04547e-09
3.16415e-09
-2.29347e-08
-8.42204e-08
7.78507e-09
-2.2625e-08
1.15308e-08
3.2801e-08
8.25695e-09
7.92724e-11
-3.57211e-10
1.51545e-09
4.27014e-09
3.80827e-09
3.3849e-09
1.08734e-08
4.97431e-09
-1.09799e-08
-1.50626e-08
-1.70827e-08
-8.44791e-09
1.06913e-08
2.42937e-08
1.75832e-08
-1.73665e-08
-1.72235e-09
1.22557e-09
1.0594e-08
8.34289e-09
-1.79352e-11
6.0217e-09
-1.95366e-08
-1.75546e-08
2.32124e-08
-7.27935e-09
3.73374e-09
4.82508e-09
-2.96649e-08
-2.31453e-08
-5.30971e-09
2.19872e-09
2.98463e-09
-1.00047e-08
-8.23842e-08
-1.25708e-08
7.73121e-09
3.94552e-09
1.4431e-08
3.4255e-09
4.89115e-11
-1.68426e-10
2.51388e-09
8.01866e-09
1.18047e-08
1.16433e-08
1.58815e-08
1.52114e-08
-5.46008e-09
-1.55571e-08
-1.51429e-08
-1.67017e-08
-2.68921e-09
1.43386e-08
3.5991e-08
-3.53275e-09
-5.09051e-09
-6.26092e-09
2.78085e-09
1.1574e-08
2.27029e-09
8.37143e-09
6.87191e-09
-4.09966e-08
-9.21266e-10
1.3894e-08
1.04323e-08
1.22876e-08
-8.17045e-09
-5.64331e-09
-1.72888e-09
6.67771e-10
1.67009e-09
-4.13081e-09
-4.9346e-08
-2.18492e-08
1.57962e-08
-1.91481e-08
-6.46102e-09
-2.71329e-10
-8.90431e-10
5.62206e-11
2.96226e-09
9.43864e-09
1.65523e-08
1.59336e-08
1.29414e-08
1.41646e-08
3.1899e-09
-1.03684e-08
-1.08503e-08
-1.36949e-08
-2.03969e-08
-1.25695e-08
3.28202e-08
2.02142e-08
-1.74126e-09
-9.26504e-09
-6.27086e-09
3.49884e-09
2.95717e-09
7.14419e-10
2.47688e-08
-9.59161e-09
-3.23498e-08
3.12922e-08
2.13803e-08
1.15637e-08
1.64327e-08
7.43063e-09
-7.62214e-10
-4.77367e-10
1.68493e-09
1.66389e-09
-1.44119e-08
-1.11406e-08
6.13069e-09
-2.73323e-08
-4.53684e-09
-2.42579e-09
-1.27451e-09
-7.91255e-12
2.00389e-09
8.20219e-09
1.78016e-08
1.63144e-08
8.64888e-09
7.29832e-09
3.32118e-09
-4.10191e-09
-5.58285e-09
-6.135e-09
-2.74348e-08
-3.70299e-08
1.19671e-08
2.03432e-08
3.71151e-09
-6.81145e-10
-4.27296e-09
-1.28294e-09
3.38669e-09
3.94261e-10
1.12837e-08
1.84076e-08
-2.90024e-08
1.61416e-08
3.01675e-08
6.23713e-09
2.13343e-08
1.10931e-08
-2.41243e-09
-1.51541e-09
1.44577e-09
1.20086e-08
1.54362e-08
4.03853e-09
-5.84373e-09
-3.41679e-09
4.39583e-09
-2.35338e-09
-6.84063e-10
-6.13204e-11
1.65854e-09
6.28651e-09
1.57415e-08
1.34037e-08
3.46737e-09
8.6504e-09
4.40029e-09
-1.70475e-09
-2.35077e-09
-1.75405e-09
-1.61254e-08
-2.769e-08
-1.11578e-08
2.47987e-09
6.87042e-10
7.99805e-09
2.60638e-09
-1.44714e-09
3.96138e-10
-1.32241e-09
3.76681e-09
1.68645e-08
-1.78034e-08
-1.52594e-09
2.71508e-08
-1.40493e-09
4.28309e-09
4.5052e-09
-4.19841e-09
-2.52476e-09
-1.03091e-09
1.17014e-08
3.48067e-08
1.53469e-08
-5.73282e-09
9.55089e-09
2.1307e-09
-1.11227e-10
2.1495e-10
1.18997e-09
1.46596e-09
3.37286e-09
7.84892e-09
2.21591e-09
-1.46982e-08
4.06343e-09
9.8599e-09
-3.34063e-10
-1.3684e-09
-7.67844e-10
-3.74379e-09
-8.70566e-09
-1.29163e-08
-1.447e-10
-2.08147e-09
5.04947e-09
3.00843e-09
9.88076e-11
-1.94486e-10
-1.11812e-09
3.61807e-11
1.67253e-08
-6.24469e-09
-1.7705e-08
2.08819e-08
1.81324e-09
-1.02286e-08
-1.17431e-09
-5.36168e-09
-3.06051e-09
-4.12525e-09
-1.39041e-09
3.18225e-08
2.15328e-08
-3.69457e-10
2.36192e-09
3.26498e-10
-1.40839e-09
-2.36516e-09
-1.90055e-09
1.93825e-10
1.58056e-09
1.867e-09
-5.24941e-09
-3.68263e-08
-2.56495e-08
1.24291e-08
2.03487e-09
-1.38276e-09
-1.31451e-09
-1.74362e-09
-3.06623e-09
-3.29779e-09
2.14018e-10
-9.56241e-10
-1.45124e-11
3.02667e-11
8.48846e-10
5.5877e-10
-9.24703e-11
6.7413e-10
1.66935e-08
1.30446e-08
-2.29483e-08
8.24687e-09
9.97756e-09
-8.13961e-09
1.29748e-10
-2.43114e-09
-1.71809e-09
-3.23487e-09
-1.38627e-08
1.14044e-08
2.1103e-08
1.1403e-09
-1.11274e-09
-4.06035e-10
-7.26543e-09
-4.60437e-09
-1.90723e-09
-2.61697e-09
1.87276e-09
5.71642e-10
-2.00364e-09
-2.7185e-08
-6.48635e-08
-6.7408e-09
8.37797e-09
-1.40581e-09
-8.10371e-10
-2.65877e-09
-1.99379e-09
8.12264e-10
8.38671e-10
3.44222e-10
-6.41762e-10
-1.2346e-09
-8.24788e-11
2.10356e-10
-6.08613e-11
1.11641e-09
1.19003e-08
1.99379e-08
-1.57015e-08
-6.21676e-09
9.85916e-09
1.72111e-09
7.8221e-09
5.14025e-09
9.74662e-10
-1.14757e-10
-1.0794e-08
-1.79652e-08
-1.43084e-09
-2.03643e-10
2.95112e-09
-3.93392e-09
-1.26158e-09
5.56867e-09
3.69858e-10
-1.3419e-09
3.02648e-09
5.38482e-09
-5.94569e-09
-8.09033e-09
-5.99086e-08
-5.04461e-08
6.03785e-09
4.98831e-10
-1.14694e-09
-1.77362e-09
-1.32386e-09
6.22556e-10
1.20482e-09
1.08439e-09
-2.73303e-10
-7.54336e-10
5.7517e-11
2.97564e-10
-2.54903e-10
1.98961e-09
9.27275e-09
1.50439e-08
-6.72655e-09
-1.32488e-08
3.8107e-09
5.34297e-09
1.02634e-08
7.21841e-09
2.13093e-09
-4.3452e-11
-2.42436e-09
-1.49136e-08
-1.69019e-08
-1.29199e-09
4.41161e-09
1.63603e-09
7.1007e-09
4.07375e-09
-6.14773e-10
-1.47698e-09
2.54734e-09
8.9777e-09
4.8962e-09
-4.43068e-09
-2.41125e-08
-6.75938e-08
-2.11387e-08
-2.04737e-10
-2.40428e-09
-1.21927e-09
-1.14768e-10
1.9248e-10
5.36967e-10
9.80585e-10
8.10346e-11
4.31228e-10
1.00062e-09
1.29814e-10
-4.13475e-10
1.90438e-09
9.12009e-09
1.0663e-08
2.15601e-10
-1.0208e-08
-2.73229e-09
-7.44679e-10
5.74485e-09
5.93046e-09
-7.51774e-12
-1.01804e-09
-6.824e-10
-7.64777e-09
-1.0746e-08
2.8727e-09
6.92924e-09
8.93334e-09
8.63236e-09
2.41016e-09
-2.4663e-09
-1.39104e-09
8.1528e-10
2.06152e-09
1.8137e-08
9.93225e-09
2.13175e-10
-3.85354e-08
-4.44397e-08
-8.64598e-09
-2.45597e-09
-1.0656e-09
1.34739e-09
1.53181e-09
1.84897e-09
1.08993e-09
-4.63044e-10
6.75829e-10
-4.8339e-10
-1.94397e-09
1.19998e-09
3.12919e-09
5.88846e-09
5.28706e-09
9.25065e-10
-3.41536e-09
-3.57595e-09
-6.87295e-09
-1.72266e-09
-5.65755e-11
-1.89749e-09
-7.8637e-10
-7.26043e-10
-2.7354e-09
-6.04422e-10
2.50613e-09
3.78074e-09
7.44237e-09
2.20465e-09
-1.30954e-09
-1.20101e-09
6.02108e-10
1.85381e-09
-7.35303e-09
8.82154e-09
3.21064e-08
1.30497e-08
-2.33888e-09
-2.73321e-08
-1.40699e-08
2.67446e-11
7.78596e-10
2.39083e-09
2.33091e-09
4.24941e-09
1.60374e-09
-2.96364e-10
9.12653e-10
-6.03197e-10
-9.96219e-10
1.38382e-09
3.64769e-09
4.85919e-09
3.36211e-09
-1.55231e-09
-4.31391e-11
-1.16489e-09
-4.15397e-09
-7.33472e-10
4.22782e-10
-1.05093e-10
-2.40808e-10
-5.7494e-11
-3.55523e-12
2.34783e-10
-2.19683e-10
8.76175e-10
2.40827e-10
-2.47567e-10
-1.26525e-09
-2.75893e-09
-1.11787e-09
-1.33316e-09
-1.80014e-08
-2.74206e-08
4.03814e-09
2.30195e-08
1.08799e-08
-1.6915e-09
-4.62329e-09
1.79908e-09
3.68014e-09
3.44994e-09
6.60855e-10
5.66153e-10
-3.51626e-10
6.20821e-11
9.5926e-10
5.86274e-10
1.07757e-09
1.01183e-09
3.28907e-10
3.17173e-09
4.49152e-09
-2.72249e-10
-2.36214e-09
1.89777e-10
-4.06234e-10
-7.02428e-10
2.16177e-10
3.6224e-10
4.28783e-11
-2.40084e-10
-1.40657e-10
-5.50376e-11
-1.89619e-10
3.11196e-11
4.32716e-10
5.0018e-10
-4.74489e-11
-1.1464e-09
-2.92406e-09
-2.37783e-09
-5.71867e-09
-3.13208e-08
-4.54103e-08
-1.17881e-08
9.08263e-09
4.26131e-09
5.7019e-09
9.33542e-09
7.76524e-09
2.47082e-09
3.01323e-10
-2.82527e-10
1.95172e-10
8.27671e-10
4.73342e-10
7.23151e-11
4.04039e-10
-7.33086e-10
-2.29136e-09
-1.00134e-09
1.42446e-09
-2.34233e-09
-4.02983e-09
-4.14381e-10
-1.0262e-09
8.02701e-10
2.41488e-09
-5.9469e-11
-3.36641e-10
-1.64121e-10
-8.00115e-11
4.4841e-11
6.53288e-10
1.84511e-09
2.02432e-09
1.30373e-09
5.50645e-10
-8.84572e-10
-2.37316e-09
-2.00592e-09
-5.24853e-10
-5.89237e-09
-2.06023e-08
-2.09492e-08
-5.03787e-09
9.96679e-10
2.43926e-09
5.63667e-09
5.32493e-09
-9.08411e-11
-4.39762e-11
-5.49041e-11
1.85355e-11
2.18769e-10
3.38321e-10
3.19099e-10
-2.43134e-10
-5.21404e-10
-8.75748e-11
-5.34145e-11
-1.58802e-09
-3.06604e-09
-1.06917e-09
-9.2557e-10
-1.84961e-09
3.77285e-09
7.44996e-09
3.0563e-09
7.37586e-10
4.58059e-10
4.57409e-10
-1.29092e-10
-6.42774e-10
5.9536e-10
2.00101e-09
2.07412e-09
9.19773e-11
-9.04966e-10
-7.12812e-10
-7.66852e-10
-1.93949e-12
-6.33408e-11
-3.80912e-09
-5.8264e-09
-1.16957e-09
3.26037e-10
5.11333e-11
5.44929e-10
3.74168e-10
-2.23076e-10
3.84756e-11
-2.73909e-11
4.37562e-11
2.53323e-10
1.47814e-09
2.04778e-09
-1.03442e-09
-3.254e-09
-6.06035e-11
4.25034e-09
2.63139e-09
-1.71824e-09
-9.9493e-10
2.76623e-10
-1.35378e-11
8.02298e-10
2.18111e-09
1.61064e-09
5.41378e-10
1.32839e-10
-5.33332e-11
-5.66589e-10
-2.01258e-09
-3.37011e-09
-2.14867e-09
-2.99424e-10
-1.07915e-10
6.00833e-10
1.28233e-09
-2.14572e-10
-9.9268e-10
-2.57375e-11
7.22956e-10
-3.59048e-10
6.35478e-10
1.43301e-09
-2.18246e-11
-1.22126e-09
-9.92651e-10
-1.53575e-09
-1.18704e-09
-5.31917e-10
-2.72694e-11
1.61931e-09
2.90763e-09
2.60632e-09
-1.78122e-10
-2.51407e-09
-1.71675e-09
3.97786e-10
1.91887e-09
9.84096e-10
1.047e-09
1.42878e-09
-7.38274e-10
-2.00146e-09
-4.9413e-11
1.01839e-09
-2.73571e-10
-7.02967e-10
-2.03395e-10
-1.19002e-09
-2.30001e-09
-1.73469e-09
-4.48943e-10
2.30826e-12
2.95252e-10
2.30879e-09
3.10523e-09
6.22517e-10
-1.52367e-09
-2.20111e-09
-1.41189e-09
-1.55044e-10
9.53945e-10
2.7383e-09
2.94887e-09
1.34919e-09
-4.8023e-10
1.93527e-10
1.02712e-10
4.03694e-11
7.21857e-11
-1.92774e-10
-1.68713e-10
-5.17301e-11
5.95933e-11
6.86703e-12
8.37789e-11
1.31955e-10
-1.2121e-10
-2.981e-10
-4.47901e-10
-2.19068e-09
-4.1975e-09
-6.70423e-09
-1.07602e-08
-1.23215e-08
-4.43752e-09
-4.72497e-09
-1.68706e-09
3.21528e-10
5.81939e-10
2.67933e-09
2.43973e-09
4.1954e-10
-6.6072e-10
-1.21024e-09
-1.13366e-09
-6.60231e-10
-8.77962e-10
-1.908e-09
-1.71851e-09
-2.5158e-10
3.36306e-10
-3.52706e-10
-8.28397e-10
8.60007e-12
1.01428e-10
7.77128e-09
6.53249e-09
3.17959e-09
1.8375e-09
1.42527e-09
1.25315e-10
-1.51366e-09
-1.55169e-09
-9.55014e-10
3.35247e-10
3.53301e-09
8.05119e-09
1.18423e-08
1.52547e-08
2.06602e-08
2.78588e-08
2.79963e-08
8.00563e-09
-3.46779e-08
-5.53797e-08
-1.60941e-08
1.53622e-08
4.8632e-09
-9.8247e-09
-1.58113e-08
-1.6916e-08
-1.50469e-08
-9.93858e-09
-4.32693e-09
6.24687e-10
3.26207e-09
1.49675e-09
-2.33584e-09
-6.08921e-09
-4.58549e-09
-1.35924e-09
-7.77713e-10
-1.49225e-09
1.66275e-09
4.71359e-09
9.87876e-09
8.98673e-09
4.07591e-09
2.01176e-09
1.74523e-09
-2.07412e-10
-2.50332e-09
-3.007e-09
-1.73128e-09
-5.50108e-11
1.72797e-09
4.59216e-09
7.09818e-09
8.23154e-09
1.19757e-08
1.85904e-08
2.35325e-08
1.7667e-08
-5.4828e-09
-2.91998e-08
-7.34739e-09
2.82354e-08
1.76872e-08
-1.60589e-08
-2.39811e-08
-1.63554e-08
-1.47567e-08
-9.68265e-09
-4.48647e-09
-6.05013e-10
3.29059e-09
3.82347e-09
1.686e-09
-1.52043e-10
-3.97515e-10
-3.12433e-10
-2.16315e-09
-3.17928e-09
-2.32343e-10
6.41672e-09
9.68192e-09
7.46996e-09
2.64549e-09
9.43743e-10
9.83356e-10
-4.44937e-10
-1.73849e-09
-1.76417e-09
-5.93346e-10
1.86778e-10
3.08919e-10
8.56967e-10
2.79078e-09
3.62163e-09
4.32851e-09
6.82407e-09
1.1945e-08
1.40781e-08
5.96145e-09
-7.59442e-09
5.63565e-09
2.79844e-08
4.40251e-08
-3.05214e-09
-3.76699e-08
-1.70032e-08
-8.77287e-09
-4.03073e-09
-1.44141e-09
-1.7941e-09
-1.685e-10
1.65637e-09
1.2432e-09
-9.14209e-11
8.00837e-10
2.06607e-09
-4.59087e-09
-7.03914e-09
-4.08313e-09
9.78101e-09
1.71743e-08
9.96694e-09
2.8632e-09
7.06312e-10
5.65335e-10
-6.9958e-10
-1.64809e-09
-1.26648e-09
4.21467e-10
3.35043e-10
-3.87334e-11
-2.02823e-10
1.28174e-09
2.33738e-09
-2.90492e-10
-2.08537e-09
3.25471e-09
7.18262e-09
3.73174e-09
-4.49242e-09
4.63449e-09
4.25046e-09
4.83732e-08
3.52272e-08
-4.4346e-08
-2.54603e-08
-5.48813e-09
-2.34419e-09
-4.36742e-10
-9.34764e-10
-4.01969e-10
9.52836e-10
1.3882e-09
-1.27961e-10
-1.46727e-09
2.90643e-09
-3.88286e-09
-1.22103e-08
-6.13697e-09
1.37487e-08
3.32183e-08
1.81876e-08
6.17062e-09
1.53058e-09
6.24331e-10
-8.3229e-10
-2.08755e-09
-2.71416e-09
2.13057e-10
1.88348e-09
1.28493e-10
9.10202e-11
1.13473e-09
2.4644e-09
-3.0305e-09
-6.72812e-09
1.37287e-09
5.28894e-09
3.09212e-09
-1.24429e-09
2.18484e-09
-8.25595e-09
1.79278e-08
5.66972e-08
-3.77849e-08
-3.61709e-08
-7.58322e-09
-4.60751e-09
-5.6298e-10
5.72719e-10
6.10852e-10
3.58264e-10
9.1246e-10
1.37017e-09
-2.74504e-09
-2.83804e-09
-2.40847e-09
-1.29821e-08
-9.77909e-09
8.39161e-09
4.17242e-08
3.54501e-08
1.08779e-08
4.08534e-09
1.43158e-09
-7.51868e-10
-2.33303e-09
-3.87614e-09
-3.64265e-09
2.78663e-09
3.00275e-09
1.75682e-09
3.02721e-09
2.9096e-09
-5.47388e-09
-7.15513e-09
1.79288e-09
2.59504e-09
-9.00816e-12
3.63708e-09
2.76388e-09
-1.18279e-08
-1.78525e-08
5.00664e-08
-1.90061e-08
-2.78126e-08
-5.42504e-09
-4.09169e-09
-1.35894e-09
3.81222e-10
-1.30149e-11
-1.18368e-09
9.04089e-10
7.32376e-09
3.54748e-09
-5.81775e-09
-5.82736e-09
-1.08379e-08
-1.22439e-08
-2.01611e-09
2.606e-08
5.5116e-08
1.69262e-08
5.88187e-09
3.44145e-09
1.87815e-10
-1.99445e-09
-2.73261e-09
-4.06496e-09
-3.04606e-09
3.71278e-09
4.46216e-09
8.37703e-09
5.81466e-09
-5.45935e-09
-4.36991e-09
9.1405e-10
-2.79115e-10
-2.6253e-09
8.61344e-09
4.15986e-09
-2.67473e-08
-4.87769e-08
2.03077e-08
1.08692e-09
-9.99142e-09
1.20159e-10
-2.26484e-10
-1.16719e-09
-3.08042e-10
1.60318e-09
3.26632e-09
4.75745e-09
1.34872e-08
1.71605e-08
-4.39677e-10
-8.84831e-09
-1.1249e-08
-1.39509e-08
-5.80636e-09
4.16491e-09
4.58713e-08
3.03072e-08
2.03362e-09
4.18898e-09
8.13154e-10
-1.29601e-09
-2.5614e-09
-5.65581e-11
-1.58724e-09
-5.53703e-09
2.15859e-09
1.37983e-08
1.1111e-08
-9.01593e-10
-1.6988e-09
-9.1349e-10
-2.93077e-09
-3.01201e-09
1.08091e-08
4.17814e-09
-3.81067e-08
-6.75308e-08
-2.19186e-09
1.07294e-08
-1.49328e-09
3.26207e-09
1.19599e-09
-6.01949e-10