/*--------------------------------*- C++ -*----------------------------------*\
| =========                 |                                                 |
| \\      /  F ield         | OpenFOAM: The Open Source CFD Toolbox           |
|  \\    /   O peration     | Version:  5.0                                   |
|   \\  /    A nd           | Web:      www.OpenFOAM.org                      |
|    \\/     M anipulation  |                                                 |
\*---------------------------------------------------------------------------*/
FoamFile
{
    version     2.0;
    format      ascii;
    class       volScalarField;
    location    "50.4676134421789371";
    object      Tdiffvw;
}
// * * * * * * * * * * * * * * * * * * * * * * * * * * * * * * * * * * * * * //

dimensions      [0 2 -3 0 0 0 0];

internalField   nonuniform List<scalar> 
60000
(
2.01086e-10
9.85651e-11
1.25354e-11
1.4964e-12
-2.97878e-11
-5.26794e-12
-8.8825e-13
-1.37341e-12
-5.43581e-12
2.4691e-12
6.93611e-11
6.97585e-11
6.12048e-14
-3.01737e-12
-7.7423e-12
-1.75716e-11
-6.97071e-11
-1.18695e-10
-1.33047e-12
-2.47013e-11
-1.05588e-10
4.54754e-12
2.70288e-12
2.1303e-10
8.95145e-10
9.54973e-10
5.04482e-10
1.69684e-10
2.87158e-11
-9.58715e-12
-2.51743e-11
-4.43794e-11
-8.45426e-11
-1.48253e-10
-1.73864e-10
-1.64976e-11
-5.03562e-12
5.17072e-12
4.45895e-11
1.71794e-10
3.04527e-10
2.14526e-10
8.9729e-12
-3.4884e-11
-8.62936e-11
-2.96311e-11
-8.33278e-12
-2.66687e-11
1.87349e-11
1.20686e-10
1.0515e-10
-8.98998e-11
-2.27127e-10
-6.38166e-11
-4.93082e-11
-2.29583e-10
-7.37037e-10
-9.90077e-10
-4.50182e-10
-8.72746e-10
1.78269e-11
1.22354e-09
-9.87266e-10
-1.49377e-10
3.55429e-09
3.55167e-09
1.91059e-09
1.11937e-09
3.03264e-10
-1.14868e-10
-8.79064e-11
-3.46996e-10
-6.21881e-10
-3.75613e-10
-1.81247e-11
1.66177e-10
-4.70857e-12
1.30601e-10
2.40245e-10
1.68449e-10
8.0523e-10
4.97775e-10
-9.35852e-11
-5.83091e-11
-1.64681e-10
-1.06546e-10
-4.3665e-12
-4.31906e-11
8.60763e-11
4.76578e-10
7.06257e-10
3.48922e-10
-3.8081e-10
-1.09053e-10
5.00844e-11
-3.47866e-10
-1.42887e-09
-2.19119e-09
-9.39873e-10
-2.15003e-09
6.87107e-10
5.59761e-09
-2.60922e-09
1.73423e-09
8.7473e-09
5.27757e-09
1.32152e-09
1.0964e-10
-5.08786e-10
-3.94866e-10
-1.50412e-10
-1.51264e-10
-4.46291e-10
-5.67794e-10
-3.44937e-10
3.95843e-11
1.97397e-10
-5.71043e-11
4.00158e-10
4.50577e-10
1.19389e-09
2.05797e-09
1.66805e-10
-6.36314e-11
-2.17596e-10
-1.24084e-10
4.56576e-11
1.39635e-11
5.82379e-11
5.15483e-10
1.04067e-09
1.60133e-09
4.94537e-10
-1.50547e-10
-2.22583e-10
-1.31209e-09
-2.46511e-09
-2.43797e-09
-5.01196e-10
-3.03785e-09
-2.11985e-09
1.43588e-08
-1.25081e-09
8.62557e-09
1.73357e-08
6.53854e-09
3.49686e-10
-4.53933e-10
-1.40542e-09
-1.40513e-09
-7.76322e-10
-4.97363e-10
-3.09707e-10
-1.51782e-10
-7.93145e-11
-4.18029e-10
6.23761e-11
-1.68842e-10
2.367e-10
6.51828e-10
5.86023e-10
2.80793e-09
1.23519e-09
-4.2363e-11
-1.86778e-10
-1.1913e-10
1.43883e-10
1.16602e-10
2.13712e-10
5.36245e-10
1.59168e-09
3.30234e-09
2.61655e-09
-2.52472e-10
-5.95504e-10
-3.42185e-09
-4.99241e-09
-2.79726e-09
7.05612e-11
-1.44205e-09
-1.22035e-08
2.36812e-08
2.72176e-09
1.41983e-08
2.7717e-08
9.52321e-09
4.5237e-10
-5.86664e-10
-1.10977e-09
-1.93745e-09
-1.5161e-09
-9.5763e-10
-3.75048e-10
2.57344e-10
8.90273e-10
1.79527e-10
-3.56396e-10
-1.7407e-10
-4.65667e-10
6.45592e-10
7.32988e-10
4.42212e-10
1.68786e-09
-1.14109e-10
-6.22532e-12
-1.26091e-10
6.1193e-11
1.39406e-10
4.62069e-10
8.46792e-10
1.75058e-09
4.45648e-09
5.31791e-09
-1.16917e-09
-9.25942e-10
-5.86341e-09
-9.98138e-09
-3.34386e-09
-2.47934e-10
3.69749e-09
-1.80013e-08
1.79661e-08
7.97798e-09
1.4347e-08
2.80596e-08
7.78762e-09
6.55263e-10
-7.66946e-10
-4.13199e-10
-1.01579e-09
-1.09527e-09
-5.9031e-10
-2.84675e-10
1.93302e-10
1.14851e-09
1.65204e-09
2.35797e-11
-2.86044e-10
-8.20255e-10
-3.90601e-10
3.95966e-10
-6.10835e-10
-2.50462e-10
-3.60035e-10
5.10989e-11
-2.79221e-11
-1.35048e-10
-6.91473e-11
3.73592e-10
1.61054e-09
1.21204e-09
3.00744e-09
7.13047e-09
-4.28094e-09
-1.2334e-09
-5.74268e-09
-1.45042e-08
-5.33555e-09
-1.29986e-09
7.4523e-09
-7.82549e-09
6.25651e-10
1.42664e-08
1.43703e-08
1.45744e-08
2.73648e-09
1.90779e-09
-6.18744e-10
-3.65076e-10
-1.76602e-10
-3.67e-10
1.19596e-10
3.7085e-10
3.86222e-10
6.32639e-10
1.55063e-09
1.14912e-09
-9.87403e-11
-5.85959e-10
-1.12045e-09
-3.36507e-10
6.27289e-10
-1.62649e-09
-2.30278e-10
4.66344e-11
7.51334e-11
-1.39009e-10
-2.31819e-10
2.43118e-10
1.0643e-09
6.57611e-10
8.69061e-10
3.19204e-09
-8.49617e-09
1.21828e-09
-1.35629e-09
-1.41548e-08
-8.98002e-09
-3.34667e-09
6.26092e-09
7.56714e-09
-7.39763e-09
1.71237e-08
1.90512e-08
-3.17636e-10
4.10503e-09
4.631e-09
-2.37739e-10
-4.49064e-10
1.06348e-10
3.43374e-10
2.65953e-10
4.88306e-10
1.34031e-09
1.11731e-09
4.69824e-10
1.08059e-09
7.08695e-10
-1.14952e-10
-8.40681e-10
1.25827e-10
6.89693e-10
-4.6172e-10
1.05891e-11
3.77318e-10
6.73592e-11
-8.59162e-11
-3.5359e-11
9.94967e-10
1.25004e-09
-2.00138e-09
1.17024e-09
-2.9368e-09
-9.78522e-09
6.05853e-09
2.12786e-09
-8.1231e-09
-8.86226e-09
-3.9905e-09
6.90026e-10
1.38679e-08
-4.00128e-09
1.56348e-08
2.40165e-08
-5.61438e-09
1.16378e-08
5.89389e-09
2.1418e-10
-4.26792e-10
2.21078e-10
5.75127e-10
3.16956e-10
3.36942e-10
2.24365e-09
3.09545e-09
6.71093e-10
-9.30064e-12
8.61945e-10
5.4913e-10
-7.73624e-10
5.98947e-10
7.50019e-10
6.38766e-10
1.11381e-09
1.61606e-09
3.29051e-10
-2.27619e-11
-2.041e-11
1.40134e-09
3.60677e-09
-2.30626e-09
3.736e-10
-1.24538e-10
-4.98875e-09
5.72848e-09
7.13539e-10
-2.16975e-09
-3.66358e-09
-2.51815e-09
-4.02034e-09
4.31138e-09
-2.46118e-09
1.20816e-08
1.94815e-08
-6.22128e-10
1.34755e-08
3.7831e-09
6.91609e-10
-3.2316e-10
3.03704e-10
4.17729e-10
4.52478e-11
3.48796e-10
2.77206e-09
4.55879e-09
2.10482e-09
-2.08856e-10
1.88113e-10
7.42798e-10
-5.89317e-10
6.33992e-10
9.71591e-10
8.94548e-10
2.51978e-09
2.81122e-09
8.35454e-10
-2.3337e-11
-1.93265e-11
1.99828e-10
3.83119e-09
2.0568e-09
-1.59423e-10
6.72522e-09
2.32842e-09
-2.06187e-11
-8.13768e-10
7.04343e-10
1.15001e-09
-1.32991e-09
-4.70696e-09
-1.4988e-08
-1.33747e-08
4.09327e-09
1.13123e-08
7.18149e-09
4.65913e-09
8.60517e-10
8.7044e-10
-2.22361e-10
2.64252e-10
1.94906e-11
-2.68113e-10
6.78364e-10
4.11699e-09
5.63619e-09
2.94473e-09
5.32765e-10
4.51084e-12
5.04029e-10
4.31312e-10
1.84544e-09
6.80695e-10
2.62127e-10
1.31199e-09
1.27473e-09
6.46245e-10
-4.35028e-11
-3.45293e-12
4.24605e-11
1.81606e-09
5.94607e-09
2.97819e-09
8.85687e-09
4.79695e-09
-7.98522e-09
-3.71001e-09
3.00559e-09
5.98017e-09
1.33687e-09
-3.09279e-09
-2.38316e-08
-2.89875e-08
-4.74318e-09
7.56077e-09
8.70241e-09
-2.60655e-09
-1.1082e-09
3.65472e-10
-1.54542e-10
7.55759e-11
-6.7763e-10
-6.10533e-10
1.44659e-09
6.57751e-09
8.31815e-09
3.71345e-09
9.41425e-10
2.5307e-10
2.70016e-10
1.32545e-09
3.84152e-09
8.7482e-10
-1.23994e-10
-1.94288e-09
-1.92214e-09
-6.59113e-11
-2.81223e-11
-7.40918e-11
3.16378e-12
7.68557e-10
6.1289e-09
6.24682e-09
9.62904e-09
6.86546e-09
-1.53474e-08
-7.81752e-09
6.5381e-09
8.52863e-09
4.88506e-09
1.173e-09
-1.21188e-08
-2.65947e-08
-7.23004e-09
4.65272e-09
3.95699e-09
-6.41608e-09
-2.43084e-09
-2.23242e-10
-6.63797e-11
-5.73952e-11
-1.49573e-09
-1.70426e-09
1.96356e-09
8.59807e-09
1.29253e-08
5.9993e-09
1.03315e-09
2.62539e-10
1.91976e-10
1.26769e-09
3.69952e-09
1.04173e-09
5.4294e-11
-2.42824e-09
-2.59683e-09
-4.83931e-10
-8.14049e-11
-1.93265e-10
-5.2138e-11
-1.86186e-10
4.04979e-09
4.13934e-09
4.8272e-09
1.0948e-08
-1.5452e-08
-8.14043e-09
7.3581e-09
6.06165e-09
5.08271e-09
3.05105e-09
2.19985e-09
-7.40993e-09
-6.1058e-09
1.36272e-09
-2.38387e-09
-6.05089e-09
-2.01105e-09
-2.97759e-10
6.50958e-11
1.07357e-10
-1.50909e-09
-2.91779e-09
1.88347e-09
7.77673e-09
1.6167e-08
1.11249e-08
1.7021e-09
1.81933e-10
2.78237e-10
1.14686e-09
1.99868e-09
-3.07143e-10
-9.10548e-10
-6.32232e-10
-1.03773e-09
-5.03011e-10
-1.76733e-10
-1.82828e-10
-7.57502e-11
-1.68814e-10
1.83753e-09
9.74623e-10
-6.37752e-09
1.00232e-08
-6.42791e-09
-3.96169e-09
1.55789e-09
-3.51427e-09
3.26714e-09
1.89412e-09
1.58464e-09
-5.93899e-10
-6.91312e-09
-2.02438e-09
-9.3519e-10
-1.61825e-11
1.67336e-10
-2.44912e-10
5.59863e-11
1.22158e-10
-5.81502e-10
-2.93326e-09
7.25165e-10
6.89312e-09
1.32507e-08
1.62876e-08
3.98813e-09
5.24707e-11
4.05627e-10
1.50045e-09
1.56335e-09
-1.68971e-09
-1.96782e-09
-3.35485e-10
-1.6892e-10
-6.12547e-10
-1.92357e-10
2.88001e-10
1.52662e-10
9.2878e-11
1.05397e-09
1.70834e-09
-1.13486e-08
2.21826e-09
2.13648e-09
-7.98684e-10
-7.1092e-09
-9.71374e-09
-2.61015e-10
-2.05074e-10
8.96304e-10
1.36027e-09
-4.90684e-09
-1.9047e-09
1.19335e-09
2.15393e-09
-1.83745e-09
-1.50373e-09
-2.01816e-10
-2.69105e-10
5.59257e-10
9.15518e-10
7.43989e-10
6.77455e-09
7.52658e-09
1.24335e-08
6.05659e-09
-2.96498e-10
2.79732e-10
2.06627e-09
1.83806e-09
-1.60674e-09
-1.42961e-09
-1.68679e-10
-3.55824e-10
-7.92182e-10
4.10663e-12
3.06208e-10
-3.0272e-11
-1.22986e-10
9.82399e-10
2.64812e-09
-5.94657e-09
-5.66224e-09
1.99333e-09
-3.05916e-09
-6.97356e-09
-3.98995e-09
-7.74986e-10
3.84067e-11
1.74586e-09
6.02449e-09
1.63998e-09
-4.76544e-11
-8.04068e-10
-3.08185e-09
-4.01097e-09
-1.97842e-09
-7.64463e-10
-1.16438e-09
-1.2061e-09
1.56993e-09
4.70424e-09
5.19473e-09
4.71834e-09
-1.21113e-09
-4.89627e-11
-1.96027e-09
-2.991e-10
1.64609e-09
1.225e-09
-1.92495e-10
-8.43832e-10
-2.29361e-10
-3.54055e-10
-9.18793e-10
-7.5811e-10
1.13126e-10
-1.17439e-09
-3.20891e-10
1.07291e-09
1.93542e-09
-1.75768e-09
-5.23005e-09
-1.38851e-10
-3.8575e-09
1.43044e-09
1.32518e-09
-5.33451e-11
5.03204e-10
2.30356e-09
7.02264e-09
4.08573e-09
-1.04161e-10
-2.1439e-09
-4.8491e-09
-3.10303e-09
-8.90954e-10
6.43088e-11
5.358e-10
-4.95296e-10
1.80678e-09
8.55196e-09
6.92752e-09
7.58478e-10
-9.2596e-09
-1.28398e-08
-5.57584e-09
-1.72658e-09
4.68571e-10
4.38374e-10
4.47065e-10
-1.50462e-10
-2.10795e-10
-1.39926e-10
-2.53818e-09
-2.79448e-09
5.20629e-10
-3.23158e-09
-1.71528e-09
2.2129e-09
2.42823e-09
3.6047e-10
-1.27589e-09
-1.50423e-09
-4.83207e-10
1.89312e-09
-1.84847e-10
8.29072e-10
2.39828e-10
1.55333e-09
3.98334e-09
3.83109e-10
-2.53254e-10
-1.24394e-09
-1.68952e-09
2.4939e-10
1.20338e-09
1.2858e-09
1.86494e-09
1.56494e-09
5.62903e-09
1.56761e-08
1.47532e-08
-4.37391e-10
-6.51496e-09
-1.28655e-08
-8.58453e-09
-2.87813e-09
-4.94155e-10
5.26171e-10
1.51668e-09
1.45921e-09
-5.76587e-11
-4.43762e-10
-1.63934e-09
-4.69661e-10
1.08522e-09
-8.51086e-10
-5.03288e-09
-2.45586e-10
3.17119e-09
1.37866e-09
3.35638e-10
3.49983e-11
8.0273e-10
-4.42709e-10
-1.58551e-09
1.93743e-10
4.84368e-10
-3.23166e-10
9.96242e-10
3.38608e-10
-7.11953e-11
2.20206e-10
4.57674e-10
5.39108e-10
4.99274e-10
1.18034e-09
2.51982e-09
2.41973e-09
2.89883e-09
1.10141e-08
1.45512e-08
2.90556e-09
-4.3401e-09
-5.92544e-09
-7.04763e-09
-3.07856e-09
-4.09944e-10
5.19543e-10
1.95772e-10
1.23719e-12
1.51627e-10
-1.74533e-10
1.69257e-09
2.64594e-09
2.42252e-09
3.68597e-09
-1.93557e-09
-4.24742e-09
3.20435e-10
2.72778e-10
-1.3262e-09
-4.04456e-10
4.2742e-10
2.32942e-11
-7.00751e-10
-7.59847e-10
1.30061e-10
1.65726e-10
-4.72669e-10
-3.4355e-10
-3.33965e-11
3.69563e-11
-2.40405e-10
-4.26624e-10
-2.41445e-10
2.31627e-10
1.37041e-09
2.55147e-09
1.20423e-09
3.29569e-09
5.90078e-09
-6.30433e-10
-3.09752e-09
-1.83629e-09
-3.46263e-09
-2.55989e-09
-3.99778e-10
-3.26009e-10
-4.33668e-10
-4.01973e-10
2.26441e-10
2.67286e-10
2.74753e-09
2.38586e-09
1.15351e-09
4.21821e-09
3.9746e-09
-1.52704e-09
-7.70365e-10
-1.50924e-10
-4.76356e-09
-3.5643e-09
-6.76078e-10
-6.20164e-10
1.80436e-10
3.6916e-10
8.92085e-11
4.05612e-10
-1.09914e-10
-1.07129e-09
-9.87231e-10
-9.84403e-10
-8.04224e-10
-1.71084e-10
5.59588e-10
6.27837e-10
8.52484e-10
1.90754e-09
5.26664e-10
4.21103e-10
4.63856e-09
2.89235e-09
-1.66306e-09
-6.57539e-10
-9.211e-10
-2.46939e-09
-1.59004e-09
-5.72897e-11
-2.38324e-10
-2.22229e-10
2.53609e-11
5.29797e-10
1.50763e-09
9.11822e-11
1.72673e-10
2.47385e-09
2.06284e-09
-1.05378e-09
-6.88585e-10
2.42385e-10
-1.53673e-09
-2.26264e-10
6.37431e-10
2.33192e-10
1.45117e-10
2.13782e-10
2.09619e-10
1.05249e-10
-6.36509e-10
-1.56234e-09
-1.37906e-09
-9.75784e-10
-1.1756e-09
-1.22397e-09
-6.52383e-10
-1.66032e-09
-2.11436e-09
-2.43685e-10
3.11624e-10
1.82186e-10
3.01735e-09
3.8547e-09
8.00799e-10
2.61619e-11
-6.34421e-10
-1.06134e-09
-6.13309e-10
-8.95785e-11
-8.07027e-11
-1.20669e-10
4.80956e-11
2.95361e-10
6.80932e-11
-9.44612e-10
1.72206e-10
3.13121e-09
9.29508e-11
-4.66736e-09
-3.36006e-09
-4.38112e-10
-6.2235e-10
-7.94574e-11
6.2344e-10
4.02639e-10
-4.62934e-10
-6.38635e-10
-2.3194e-10
-1.66052e-10
-4.67627e-10
3.15659e-11
7.59847e-10
4.63769e-10
-2.63071e-10
-4.66836e-10
-1.16628e-09
-2.43637e-09
-2.49625e-09
-6.39624e-10
9.46971e-10
2.39618e-09
3.20559e-09
1.93885e-09
4.79869e-10
-1.68747e-10
-2.23486e-10
-3.02138e-10
-2.28223e-10
-9.32258e-10
-8.44108e-10
6.36858e-10
1.19053e-09
5.85783e-10
7.78593e-11
-2.26896e-10
-4.0678e-10
1.94026e-09
3.15306e-09
-1.50869e-09
-2.59466e-09
-9.27853e-10
-7.47731e-10
-1.14628e-09
-4.03748e-10
1.86568e-10
1.638e-10
5.20237e-10
1.05724e-09
9.37816e-10
1.75347e-10
5.61499e-10
1.18517e-09
7.27319e-10
1.61538e-11
-6.46304e-10
-7.51108e-10
-1.89562e-09
-3.04636e-09
-1.63098e-09
4.98562e-10
2.24814e-09
3.25906e-09
2.58367e-09
7.36969e-10
-6.23075e-10
-7.77168e-10
-6.33872e-10
-4.17569e-10
7.96778e-12
6.89044e-12
-1.04133e-12
-1.88053e-12
-1.94129e-12
-5.63858e-12
-1.08704e-11
-8.20691e-12
-8.29855e-13
2.74692e-12
2.36984e-12
2.28931e-11
7.25168e-11
9.74363e-11
1.06936e-10
1.75353e-10
3.00977e-10
1.89546e-10
-5.12159e-11
4.87125e-11
-1.6619e-13
-3.11616e-11
1.39668e-11
8.76581e-11
1.16984e-10
1.02797e-10
4.30184e-11
1.42181e-11
-5.64287e-11
-2.08577e-11
-5.21871e-11
-1.51972e-10
-1.27249e-10
-4.72985e-11
-4.86645e-11
-9.86058e-12
-3.44133e-11
2.87135e-12
-2.89579e-12
2.77491e-12
-1.51729e-11
7.4964e-11
1.02296e-11
9.91268e-12
1.10525e-10
9.98331e-11
-6.45534e-11
-5.86322e-11
-3.45942e-11
-7.15842e-11
-2.4531e-10
-3.02274e-10
-5.29542e-11
-3.34519e-12
-3.78386e-10
-7.5947e-10
1.70097e-10
1.64245e-09
5.46151e-10
-6.31736e-10
-8.47912e-10
-3.44479e-10
1.94565e-10
6.30815e-10
1.41269e-09
1.73046e-09
9.40946e-10
1.23138e-11
-4.11659e-10
3.56806e-11
3.27155e-10
-1.88511e-10
-9.68576e-10
-9.22558e-10
-4.56756e-10
-1.92848e-10
-4.82314e-12
8.4958e-11
-1.34464e-10
-1.72178e-10
3.13235e-10
3.49113e-10
1.50461e-11
-3.5861e-11
1.26248e-10
3.66268e-10
1.88761e-11
-8.76567e-11
-8.06313e-11
5.29101e-11
-2.88186e-10
-7.40709e-10
-1.79333e-10
-2.9836e-11
-1.01911e-09
-2.45101e-09
-1.78899e-09
1.45424e-09
1.65736e-09
-8.45133e-10
-4.42766e-09
-5.01092e-09
-5.599e-12
1.38397e-09
3.40677e-09
3.91284e-09
1.8681e-09
3.24308e-10
-2.60529e-11
2.7227e-10
1.66635e-10
-3.40838e-10
-8.12989e-10
-1.0069e-09
-8.66944e-10
-4.4105e-10
-1.2494e-11
-1.04719e-10
2.75791e-11
1.30373e-11
6.62568e-10
1.03385e-09
6.68923e-11
-4.32451e-11
7.53542e-11
5.37079e-10
2.03775e-10
-1.17064e-10
-3.5007e-10
-3.79211e-10
-1.51338e-10
-9.75335e-10
-2.21373e-10
2.24824e-10
-1.82707e-09
-4.39724e-09
-3.74311e-09
2.37957e-10
1.73175e-09
4.83548e-10
-5.12458e-09
-2.05943e-08
-3.37743e-09
4.73474e-09
8.42372e-09
7.64085e-09
2.31012e-09
1.62734e-10
-2.82769e-10
-1.02067e-10
-3.19782e-10
-5.23399e-10
-4.98947e-10
-5.28756e-10
-9.8424e-10
-1.5189e-09
-7.53865e-10
-2.86757e-10
-1.37185e-10
1.04737e-10
2.85936e-10
2.23019e-09
2.67285e-10
-5.18476e-11
-1.13155e-10
6.03943e-10
6.91645e-10
-2.18617e-11
-2.5098e-10
-2.43629e-09
-1.09452e-09
-1.9751e-09
-1.03321e-09
8.64659e-10
-2.5411e-09
-6.84733e-09
-5.27031e-09
-7.74522e-11
2.73776e-09
1.24502e-09
6.25974e-09
-3.70542e-08
-1.50111e-08
1.04178e-08
1.65288e-08
1.60985e-08
4.69892e-09
2.89354e-10
-7.15935e-10
-9.02744e-10
-6.60157e-10
-3.1236e-10
-1.52876e-10
2.42143e-12
-9.75381e-11
-2.46247e-09
-2.61643e-09
-1.06698e-09
-7.42847e-10
2.65079e-10
-2.64598e-10
3.73638e-09
6.33769e-10
-1.07937e-10
-5.56106e-10
1.87672e-10
1.02698e-09
3.87763e-10
4.78776e-10
-3.11037e-09
-4.78032e-09
-4.43238e-09
-3.47414e-09
1.71609e-09
-1.67059e-09
-6.86099e-09
-3.99144e-09
2.1318e-10
3.0469e-09
-1.72154e-10
2.07701e-08
-3.19589e-08
-2.9995e-08
1.57285e-08
2.36027e-08
2.37756e-08
8.29152e-09
6.8065e-10
-4.29529e-10
-9.04856e-10
-7.20546e-10
-1.39516e-10
-1.18688e-10
1.01629e-10
1.02529e-09
-8.00245e-10
-4.1828e-09
-2.97147e-09
-1.23159e-09
-1.14519e-10
-1.36834e-10
2.4492e-09
2.44393e-09
-3.84329e-10
-1.07628e-09
-1.03428e-09
6.45136e-10
5.88158e-10
1.27224e-09
8.9681e-10
-7.67405e-09
-9.46182e-09
-6.70634e-09
1.80949e-09
4.60789e-11
-1.244e-09
4.05654e-09
3.59074e-09
1.47396e-09
-1.312e-09
2.5788e-08
-1.68103e-09
-3.24702e-08
1.87173e-08
2.48557e-08
2.01207e-08
6.75505e-09
5.24361e-10
-1.46534e-10
-5.36184e-10
-5.16032e-10
5.59108e-11
2.21837e-11
1.16303e-09
2.82507e-09
2.41269e-09
-2.67362e-09
-5.18035e-09
-2.25862e-09
-8.37732e-10
7.11392e-10
-1.71709e-09
4.05626e-09
-5.98423e-11
-1.38137e-09
-2.63424e-09
-3.13646e-10
1.61969e-10
1.98105e-09
5.78395e-09
-1.18313e-09
-1.29307e-08
-8.03848e-09
2.53166e-09
4.16513e-10
6.35579e-09
1.37834e-08
6.4258e-09
-1.43957e-09
-2.62931e-09
2.37423e-08
3.5894e-08
-1.50662e-08
1.74531e-08
2.03765e-08
4.06044e-09
-5.39483e-10
-3.18055e-10
-1.75729e-10
-4.01944e-10
-4.79154e-10
4.39064e-10
1.00674e-09
2.9525e-09
6.22169e-09
5.88786e-09
1.40193e-09
-4.69064e-09
-4.53544e-09
-4.71029e-10
1.82513e-09
-1.308e-09
1.91456e-09
1.51823e-09
-4.91235e-10
-3.19336e-09
-1.63824e-09
-1.8897e-11
1.19561e-09
8.70482e-09
1.0152e-08
-6.35822e-09
-5.15161e-09
4.30979e-09
-1.96301e-09
7.88762e-09
1.26359e-08
2.1487e-09
-4.56235e-09
-4.07239e-09
1.6738e-08
6.23687e-08
1.19787e-08
1.42425e-08
1.00872e-08
-1.69777e-08
-6.3521e-09
-7.37732e-10
-4.15156e-10
-6.8826e-10
-8.53191e-10
6.10128e-10
2.94742e-09
5.79529e-09
9.20115e-09
8.26707e-09
4.70212e-09
-1.19236e-09
-5.35314e-09
-5.93125e-10
2.3543e-09
1.19736e-09
1.77292e-10
2.39302e-09
2.89947e-09
-3.98947e-10
-1.99925e-09
1.87912e-10
-2.67293e-09
4.86299e-09
1.76349e-08
6.63668e-09
-3.19396e-09
2.86192e-09
-4.96669e-09
-2.44936e-09
-2.55243e-09
-4.88881e-09
-4.19604e-09
-4.52069e-09
4.25513e-09
6.04726e-08
2.84229e-08
1.07934e-08
-4.9364e-09
-2.50655e-08
-2.69916e-09
-9.37532e-11
-8.0254e-10
-1.04084e-09
-1.10652e-09
5.12881e-10
4.00237e-09
8.22297e-09
1.10565e-08
8.9605e-09
5.23238e-09
1.89151e-09
-2.74409e-09
-1.7052e-09
-1.04577e-09
-1.35172e-10
-2.94927e-10
3.02177e-09
6.55808e-09
3.38716e-09
-6.02531e-10
-3.42407e-10
-3.83283e-09
-5.66394e-09
1.48108e-08
1.74567e-08
-2.99525e-09
6.28795e-10
-3.51874e-09
-1.63222e-08
-1.63597e-08
-2.99165e-09
-1.07908e-09
-4.28283e-09
-1.04739e-08
2.47425e-08
2.01429e-08
5.91705e-09
-1.128e-08
-7.32745e-09
4.81155e-09
5.60411e-11
-6.59725e-10
-7.29013e-10
-1.17816e-09
3.45446e-10
5.14256e-09
1.0369e-08
1.24761e-08
8.08853e-09
3.95378e-09
2.24337e-09
3.59473e-10
-1.15285e-09
-5.04908e-09
-4.85559e-09
-3.04381e-09
1.98305e-09
4.99043e-09
3.42159e-09
6.75954e-10
-7.4564e-10
-1.30573e-09
-1.0516e-08
3.46663e-09
2.56656e-08
2.94997e-09
2.67334e-09
1.16719e-09
-1.87924e-08
-1.4854e-08
4.24634e-09
6.19542e-10
-3.34078e-09
-2.26012e-08
-2.23114e-08
-2.0343e-10
2.73525e-09
-2.06786e-09
1.15154e-08
3.93901e-09
1.92541e-11
-4.12003e-10
-7.56799e-10
-1.65e-09
-5.96184e-10
6.56118e-09
1.36346e-08
1.6861e-08
9.51728e-09
2.59256e-09
1.19939e-09
1.03021e-09
2.04611e-09
-1.30976e-09
-6.24245e-09
-6.14709e-09
-4.18179e-09
-2.00623e-09
6.15812e-10
6.96444e-10
-5.37022e-10
-3.31238e-10
-7.75925e-09
-1.17195e-08
2.50464e-08
1.35298e-08
6.16634e-09
5.61795e-09
-8.2929e-09
-2.92302e-09
5.71558e-09
4.78055e-10
-1.05056e-09
-2.36606e-08
-4.90618e-08
-1.38939e-08
1.6117e-09
5.92175e-09
9.24628e-09
-3.10343e-10
-7.64416e-10
-1.0629e-09
-6.82025e-10
-1.65926e-09
-2.55307e-09
5.45339e-09
1.50613e-08
2.18078e-08
1.45615e-08
2.76582e-09
3.22717e-10
7.71985e-10
3.87507e-09
4.24477e-09
-2.30377e-09
-4.02857e-09
-7.63289e-09
-5.63457e-09
-8.76407e-10
3.75965e-10
5.78426e-12
-1.50026e-11
-4.24316e-09
-2.06159e-08
4.72829e-09
1.95557e-08
6.42599e-09
7.80984e-09
6.46217e-09
3.13236e-09
1.47467e-09
-1.20195e-10
1.6622e-09
-1.00117e-08
-4.20759e-08
-1.89678e-08
-1.15917e-09
4.11242e-09
1.546e-09
-6.63613e-10
3.26042e-10
1.22044e-10
4.85727e-11
-5.98717e-10
-2.13863e-09
1.96312e-09
9.77351e-09
1.97328e-08
2.15557e-08
5.05851e-09
-9.77232e-11
7.14216e-10
3.22568e-09
3.81155e-09
-2.30002e-10
-2.19419e-09
-3.91596e-09
-3.16978e-09
-6.70606e-10
3.56203e-10
2.12263e-10
3.00023e-11
-1.3901e-09
-1.69578e-08
-1.75739e-08
1.54303e-08
5.4171e-09
7.23293e-09
1.24677e-08
6.31183e-11
-2.49924e-09
-7.16663e-10
1.39726e-09
1.8302e-09
-1.94665e-08
-1.56384e-08
-3.10858e-09
1.00692e-09
3.66825e-09
6.25183e-09
3.11558e-09
6.56055e-10
7.08745e-10
2.06832e-10
-7.85318e-10
-1.48752e-10
3.58091e-09
7.88045e-09
2.10006e-08
9.85994e-09
-1.36381e-10
7.58225e-10
1.87731e-09
9.38681e-10
-1.43791e-09
-6.20215e-10
1.37848e-09
-7.13072e-10
-1.12116e-09
9.0981e-11
4.93488e-11
-3.52809e-11
-4.88298e-10
-8.2371e-09
-1.89064e-08
6.33366e-09
5.59635e-09
3.86583e-09
6.4921e-09
-5.93001e-09
-5.57051e-09
-1.4279e-09
-2.22445e-10
3.07893e-09
-5.9111e-09
-6.65972e-09
-1.848e-09
2.75484e-10
6.50623e-09
3.08784e-09
-4.40517e-10
7.34327e-10
5.66254e-10
1.3451e-09
4.92866e-09
1.0424e-09
-3.55561e-10
-1.45591e-09
6.91198e-09
1.21662e-08
1.20183e-09
3.77995e-10
1.45903e-09
3.48829e-10
-8.62983e-10
1.04466e-09
2.09493e-09
-1.78795e-10
-5.80586e-10
2.35348e-10
1.52325e-10
-5.13863e-10
-5.72021e-10
-3.56673e-09
-1.0698e-08
2.52904e-10
5.28947e-09
1.73584e-09
1.26805e-09
-6.22742e-09
-5.02119e-09
-1.84449e-09
-3.26222e-10
1.4946e-09
-5.64838e-10
8.93904e-10
-1.05593e-09
-3.18278e-09
-1.04216e-09
-2.97297e-09
-1.87163e-09
-9.41193e-10
-1.77199e-10
1.04124e-09
7.59334e-09
9.2032e-09
-3.70844e-09
-4.31569e-09
-7.01815e-09
3.18076e-09
2.37918e-09
-5.50795e-10
1.19994e-09
5.78922e-10
3.54773e-11
6.77731e-10
6.46691e-10
3.87916e-10
-2.79281e-10
-6.58051e-10
-3.35118e-10
-1.62988e-09
-2.81375e-09
-1.83871e-09
-3.35479e-09
-1.52854e-09
3.11183e-09
-3.85816e-10
1.43079e-09
-2.89636e-09
-3.21443e-09
-1.34769e-09
-1.2689e-10
6.85605e-10
1.84936e-09
4.18604e-09
-5.02982e-10
-4.03913e-09
-5.8539e-09
-5.46661e-09
-3.03388e-09
-1.36312e-09
-5.33449e-10
6.92864e-10
6.90037e-09
1.82181e-08
2.64849e-09
-8.7165e-09
-8.38805e-09
-5.209e-09
2.12044e-09
-5.24761e-11
5.64722e-11
-3.15873e-11
1.1969e-10
-1.36016e-10
-1.44255e-10
-1.25056e-10
-1.85945e-09
-2.09544e-09
-2.15069e-09
-3.94384e-09
-6.87138e-09
-3.17655e-09
1.99305e-10
-4.21039e-10
7.09193e-10
-1.75765e-09
1.37798e-09
3.79011e-11
-2.59136e-10
-1.03689e-10
-3.36698e-10
1.61331e-10
1.79001e-09
1.78252e-09
-1.99579e-10
-1.61776e-09
-4.5102e-09
-2.69823e-09
-2.59258e-10
9.06125e-10
2.26948e-10
6.49504e-11
8.26414e-09
2.1298e-08
2.1304e-08
-6.64735e-09
-7.71565e-09
-4.23299e-09
2.31908e-10
1.47602e-09
-7.80385e-11
-1.04606e-09
-1.72176e-09
-1.73502e-09
-6.71346e-10
-6.95014e-10
-6.00953e-10
3.07707e-10
-1.96613e-09
-3.08064e-09
-7.11063e-09
-7.31792e-09
1.1837e-09
1.08248e-09
1.05215e-09
1.35897e-09
1.42912e-09
2.1133e-10
-3.04546e-10
2.4126e-10
1.85055e-10
-9.96686e-11
2.44613e-10
1.17997e-10
1.98092e-10
-5.56658e-10
-1.08843e-09
-4.3523e-10
7.03499e-10
1.77495e-09
6.45673e-10
1.57988e-09
1.16094e-08
1.90693e-08
2.22314e-08
5.50616e-09
-7.68523e-09
-2.71614e-09
-2.34826e-09
-1.35291e-09
-7.51994e-10
-1.9841e-09
-1.52397e-09
-1.34979e-09
-5.99507e-10
-6.95608e-10
1.28312e-09
2.41253e-09
1.10177e-10
1.65182e-09
1.28245e-09
-7.14617e-09
-1.93453e-09
3.00843e-09
1.97566e-09
2.02032e-09
2.19261e-10
-4.91129e-10
4.15663e-11
2.74789e-11
5.08177e-11
1.66251e-11
7.39811e-11
-8.65285e-12
-1.25671e-11
-5.89742e-10
-1.39482e-09
-1.21871e-09
-3.37862e-10
9.41082e-10
1.87834e-09
9.96659e-10
3.96189e-09
1.09584e-08
9.00433e-09
3.24074e-09
-3.1079e-09
-2.4169e-09
-2.97363e-09
-4.24534e-09
-3.47187e-09
-1.38497e-09
-6.37611e-10
-2.56724e-10
1.77758e-10
-8.0121e-11
1.41719e-09
2.08487e-09
1.86765e-10
1.3603e-09
6.5873e-09
1.93552e-09
-1.58322e-09
3.87906e-09
1.54769e-09
-1.34913e-09
-1.29297e-09
-1.23416e-09
5.46388e-10
1.02453e-09
2.12198e-10
-1.88308e-10
-1.12495e-10
-8.66195e-11
-5.0205e-10
-1.15825e-09
-1.86456e-09
-2.00211e-09
-8.93077e-10
1.06848e-09
2.32385e-09
1.30741e-09
1.01425e-09
5.79039e-09
8.20644e-09
1.99084e-09
-2.62367e-09
-1.08243e-09
-1.518e-09
-3.67513e-09
-3.54231e-09
-1.07369e-09
-5.93411e-10
-2.20955e-10
-1.25693e-12
1.77351e-10
8.4966e-10
5.0796e-10
1.50928e-10
2.88199e-10
1.63068e-09
1.90119e-09
-1.18281e-09
1.61681e-09
-7.66903e-10
-2.07839e-09
-2.47123e-10
-1.80104e-09
-1.72465e-09
-1.12148e-10
3.63487e-11
-1.68771e-10
-3.0933e-10
-1.76756e-10
-6.24425e-10
-1.28092e-09
-1.47693e-09
-1.247e-09
2.79021e-10
1.18105e-09
1.03203e-09
1.02371e-09
4.24348e-10
8.83611e-10
3.49913e-09
3.62114e-09
4.84471e-10
-3.09843e-10
-1.50032e-09
-2.26951e-09
-1.81672e-09
-1.05137e-10
-7.06861e-11
-1.46741e-11
6.90672e-11
2.05888e-10
3.64016e-10
-2.85107e-10
1.05641e-10
1.72889e-09
-2.3868e-10
-3.35232e-09
-4.0867e-09
-7.75463e-10
-4.03345e-10
-8.08277e-10
-2.71262e-11
-8.7209e-10
-9.81493e-10
4.05097e-11
2.51089e-10
1.54459e-11
4.89157e-11
4.63453e-10
8.7765e-10
1.00893e-09
4.78267e-10
1.95445e-10
7.46896e-11
-1.0255e-09
-1.65495e-09
1.79289e-10
1.51101e-09
2.66269e-09
2.25349e-09
1.22441e-09
7.22578e-10
-5.29182e-10
-3.80512e-10
1.6214e-10
1.94267e-12
4.78587e-10
-2.30215e-10
-4.21952e-11
4.98946e-10
1.57878e-10
3.49307e-10
4.51262e-10
-2.75612e-10
8.27699e-10
7.48253e-10
-1.33492e-09
-1.58324e-09
-6.76911e-10
-3.48597e-10
-8.6712e-10
-4.85933e-10
-1.38413e-10
-8.12682e-11
9.81773e-10
1.1322e-09
2.1249e-10
7.81451e-10
1.11531e-09
5.92244e-10
7.44767e-10
3.88862e-10
-2.7568e-11
2.897e-10
-9.31216e-10
-2.79513e-09
-1.24111e-09
1.97769e-09
3.54881e-09
4.98125e-09
5.30874e-09
2.43038e-09
-7.34307e-10
-1.7359e-09
-7.82741e-10
3.92213e-10
-1.33169e-11
-3.47427e-11
1.19956e-11
2.2441e-13
9.49914e-12
4.41789e-12
2.48403e-12
2.01252e-12
-7.52577e-13
-1.76428e-12
5.7498e-12
3.10741e-11
4.71341e-11
4.85653e-11
1.3344e-10
3.09923e-10
5.00354e-10
6.31434e-10
4.66251e-10
-7.16359e-13
-3.36589e-11
-2.13749e-10
-9.58248e-12
9.45435e-11
3.48375e-10
3.62086e-10
1.04052e-10
-5.16869e-11
-3.22586e-11
1.59945e-11
2.89194e-11
3.41958e-11
3.79765e-11
2.57737e-11
2.63549e-11
2.41348e-11
-6.74492e-13
-5.86306e-11
-2.14443e-11
2.76284e-12
5.81421e-10
3.22797e-10
1.79998e-10
-1.42095e-11
-4.24356e-12
3.94738e-11
5.44413e-11
1.8581e-11
-1.75335e-11
-3.11617e-11
-9.74359e-11
-1.07658e-10
-4.35622e-11
-1.51024e-10
-1.83576e-10
1.05956e-10
6.05999e-10
1.50074e-09
2.54812e-09
7.90205e-10
-6.16603e-10
-1.04102e-09
-3.64816e-11
6.56808e-10
1.17021e-09
6.81088e-10
-2.82216e-10
-5.40799e-10
-2.88304e-10
-1.65998e-10
-1.46112e-10
8.14472e-11
2.58006e-10
1.8093e-10
7.14781e-11
-5.42833e-12
-7.02297e-11
-1.50705e-10
2.54566e-11
2.12418e-10
7.56589e-10
1.18301e-10
2.37709e-10
-2.02208e-11
6.86433e-11
1.41613e-10
8.11865e-11
-8.51922e-12
-5.63613e-11
-1.83797e-11
-1.18223e-10
-1.90757e-10
-2.03611e-10
-2.75702e-10
-3.4985e-10
-3.37931e-10
-1.41308e-10
7.46274e-10
2.26906e-09
1.07935e-09
-2.29918e-09
-4.52276e-09
-1.55125e-09
6.03314e-10
2.46634e-09
1.34067e-09
-5.40599e-10
-5.65715e-10
-5.71493e-11
-3.40673e-10
-8.2961e-10
-5.53938e-10
-8.99825e-11
-1.57312e-11
-1.38265e-10
-7.37271e-11
-2.02425e-10
-2.44791e-10
-1.34739e-10
1.68402e-10
4.04642e-10
-4.7121e-10
2.15233e-11
-6.73623e-11
2.26074e-10
3.74506e-10
1.74747e-10
1.28617e-11
-1.02443e-10
-1.33653e-11
-1.82093e-10
-1.62837e-10
-1.4831e-10
-1.22713e-10
7.88382e-11
2.37713e-10
-8.65639e-12
3.39412e-10
1.72676e-09
1.00259e-09
-2.71103e-09
-8.24782e-09
-7.6357e-09
-1.74254e-09
4.55152e-09
2.26412e-09
-3.26502e-10
-2.53887e-10
6.19431e-11
-6.98783e-10
-1.45081e-09
-1.10663e-09
-3.78488e-10
-2.03672e-10
-6.0526e-10
-4.77994e-10
-4.91307e-10
-5.68357e-10
-3.64139e-10
5.96487e-10
-3.40724e-10
-1.03711e-09
-5.25062e-10
-1.15911e-10
2.20236e-10
5.87478e-10
3.22466e-10
6.5936e-11
-3.24298e-10
-1.08874e-10
-2.30196e-10
-2.49385e-10
-2.21688e-10
-3.64085e-10
4.80923e-10
1.58489e-09
1.14879e-09
1.14487e-09
2.95137e-09
1.87487e-09
-9.96886e-10
-7.55873e-09
-1.51524e-08
-7.56986e-09
9.97575e-09
5.19563e-09
5.16094e-11
-2.92871e-10
-2.02042e-10
-8.90575e-10
-1.40852e-09
-1.02747e-09
-4.24094e-10
-1.12666e-10
-8.08989e-10
-1.55272e-09
-1.28286e-09
-1.52947e-09
-4.51721e-10
1.66207e-09
3.57752e-10
-3.59417e-09
-1.49682e-09
2.23678e-11
-1.25589e-11
7.77337e-10
5.7727e-10
1.76572e-10
-4.92508e-10
-9.67915e-10
-4.36009e-11
-1.38341e-10
-2.46259e-10
-7.16378e-10
9.18055e-10
2.98131e-09
2.01001e-09
1.96075e-09
4.42482e-09
2.19211e-09
8.44163e-10
-1.5706e-09
-1.65267e-08
-1.46537e-08
1.64722e-08
1.09856e-08
7.21349e-10
-4.33948e-10
-4.57156e-11
-3.51558e-10
-4.91343e-10
-3.88418e-10
-5.42156e-10
-1.57185e-10
1.79777e-11
-1.81037e-09
-2.48091e-09
-2.88305e-09
-6.62979e-10
2.64544e-09
5.72831e-09
-6.85906e-09
-3.85218e-09
4.74861e-10
-3.84445e-10
6.86585e-10
9.02864e-10
4.76106e-10
-1.07591e-10
-1.80532e-09
-9.08061e-10
4.23215e-10
-6.68605e-11
-8.14312e-10
1.36673e-09
3.08209e-09
1.34327e-09
2.52254e-09
6.16912e-09
1.6546e-09
8.06652e-10
7.97674e-09
-5.72715e-09
-1.6573e-08
1.91843e-08
1.4768e-08
1.39016e-09
-2.58218e-10
2.02936e-10
2.9876e-10
4.06035e-10
1.80817e-10
-4.45783e-10
7.7764e-10
2.72311e-09
5.16184e-10
-2.83383e-09
-4.19544e-09
-1.7044e-09
3.55045e-09
1.01662e-08
-9.93869e-10
-8.27363e-09
3.30088e-10
-2.92455e-10
2.34118e-11
8.8279e-10
5.75134e-10
2.54006e-10
-5.37712e-10
-2.76018e-09
-9.36382e-10
-2.49745e-10
-7.94627e-10
1.62619e-09
1.61296e-09
6.82759e-11
2.60613e-09
5.87853e-09
-7.51771e-10
-1.21952e-09
1.88698e-08
1.57913e-08
-9.16085e-09
1.74007e-08
1.24811e-08
1.2544e-09
-2.13667e-10
1.20787e-11
-6.99438e-11
-3.72761e-10
4.92069e-11
8.67952e-10
3.57725e-09
8.4795e-09
6.2274e-09
-4.21347e-10
-4.55762e-09
-3.25773e-09
4.22816e-09
1.01386e-08
7.76012e-09
-8.86969e-09
-2.52835e-09
2.75353e-10
-3.16131e-10
6.09739e-10
3.9502e-10
-8.84677e-10
-3.44027e-10
-3.73914e-10
-4.93481e-09
-3.38293e-09
-2.97818e-10
1.74991e-09
1.02074e-09
1.75913e-10
2.44745e-09
1.44594e-09
-5.57566e-09
-5.10959e-09
2.62507e-08
3.39276e-08
8.15058e-10
1.15874e-08
5.8016e-09
-7.0064e-11
-7.17859e-10
-4.5467e-10
-8.01332e-10
-1.38934e-09