/*--------------------------------*- C++ -*----------------------------------*\
| =========                 |                                                 |
| \\      /  F ield         | OpenFOAM: The Open Source CFD Toolbox           |
|  \\    /   O peration     | Version:  5.0                                   |
|   \\  /    A nd           | Web:      www.OpenFOAM.org                      |
|    \\/     M anipulation  |                                                 |
\*---------------------------------------------------------------------------*/
FoamFile
{
    version     2.0;
    format      ascii;
    class       volScalarField;
    location    "50.4676134421789371";
    object      TDuT;
}
// * * * * * * * * * * * * * * * * * * * * * * * * * * * * * * * * * * * * * //

dimensions      [0 1 -2 1 0 0 0];

internalField   nonuniform List<scalar> 
60000
(
-1.61863e-05
-1.80743e-06
5.73013e-06
8.74833e-07
4.65224e-07
3.77879e-06
2.06982e-06
9.3703e-07
7.03978e-06
4.5477e-06
-7.65327e-06
-1.34388e-05
-1.17442e-05
-1.45427e-05
-1.38213e-05
-1.02652e-05
2.36074e-07
1.8516e-05
1.50879e-05
-3.52837e-05
-7.94644e-05
-7.55556e-05
-2.51104e-05
9.60152e-05
0.000320561
0.000527963
0.000482069
0.000208864
-7.21352e-06
-3.64124e-05
-9.71082e-06
1.03996e-05
-9.4857e-06
-4.48573e-05
-5.78682e-05
-3.18724e-05
-2.41133e-05
-1.04011e-06
-2.20245e-06
-1.56833e-05
9.76222e-05
1.57713e-05
-2.19704e-05
3.63643e-06
2.05173e-05
1.44725e-05
1.46201e-05
1.61239e-05
3.02476e-05
9.22841e-05
0.000173268
0.000156343
4.25005e-05
-3.86794e-05
-6.17837e-05
-8.5808e-05
-0.000132627
-0.000129249
2.83566e-05
0.000235425
0.000160072
-3.49701e-05
-0.000226461
-0.000530983
-0.00081219
-0.000761847
-0.000221418
0.000488958
0.000736949
0.000435225
0.000102011
3.66656e-05
0.000104702
0.000229835
0.000210217
1.26012e-05
-0.000102947
-4.75747e-05
2.10641e-05
0.000100836
6.93078e-05
3.60025e-05
2.00837e-06
4.49911e-06
6.18126e-06
4.81544e-07
3.98099e-06
7.04958e-06
1.30168e-06
2.15045e-05
7.42855e-05
9.53396e-05
5.00523e-05
2.80526e-06
-1.09147e-05
-2.06066e-05
-5.05418e-05
-7.77615e-05
-2.56495e-05
0.000142201
0.000215836
0.000125838
2.72095e-07
-0.000293465
-0.000665298
-0.000852878
-0.000601859
-7.81924e-05
0.000244165
0.0002122
8.57194e-05
3.36031e-05
6.14661e-05
0.000107301
0.000114201
3.4471e-05
-1.76876e-05
-3.25352e-05
-2.74647e-06
4.29892e-05
3.07406e-05
1.90792e-05
1.13548e-06
7.75942e-07
5.24398e-06
2.99273e-06
1.12295e-06
1.97309e-06
-1.23699e-06
2.6264e-06
2.15162e-05
3.53498e-05
1.63924e-05
-7.40305e-07
3.60814e-07
-7.5044e-06
-2.61848e-05
-3.53615e-05
-1.63119e-05
5.14474e-05
9.01444e-05
6.86249e-05
3.35735e-05
-0.000124068
-0.000293218
-0.000365477
-0.000274608
-8.60305e-05
4.18961e-05
4.41766e-05
1.44865e-05
4.20496e-06
1.03419e-05
2.6285e-05
3.4651e-05
4.60289e-06
-8.48351e-06
-1.58856e-06
-2.49969e-06
1.3438e-05
4.64956e-06
3.44532e-06
-3.02045e-07
4.32211e-07
2.15566e-06
1.98164e-06
8.6249e-08
-7.60536e-07
-2.56494e-07
-9.143e-07
1.26526e-06
6.94559e-06
5.26259e-06
-8.12172e-07
-1.09618e-06
-4.46878e-06
-8.87417e-06
-6.64339e-06
-9.00983e-06
1.14306e-05
3.77388e-05
-1.30539e-05
4.57518e-06
-3.87442e-05
-5.05149e-05
-3.97308e-05
-2.48518e-05
-3.87215e-06
8.60891e-06
-4.0359e-06
-4.13077e-06
3.1257e-06
2.57377e-06
1.18263e-08
4.06857e-07
-3.16269e-06
-1.66226e-06
4.50357e-06
1.74508e-06
-1.45447e-08
-2.83297e-08
4.12e-07
1.74865e-07
2.61183e-07
1.9866e-07
3.94809e-07
-1.26994e-07
-1.05205e-06
-9.47795e-07
-3.03717e-07
-4.95146e-07
9.35587e-07
2.48196e-06
3.71457e-07
-2.64218e-06
-3.98451e-06
-5.33721e-06
-5.04376e-06
-1.12899e-05
-1.27398e-05
4.37647e-05
-1.90011e-05
-1.21958e-05
-1.10616e-05
4.96953e-06
6.21032e-06
2.16575e-06
6.11274e-08
2.09545e-06
-2.15834e-06
-4.88388e-06
-1.50153e-07
2.02531e-06
2.77237e-07
-2.9264e-06
-3.37343e-06
-1.02441e-06
1.97846e-06
1.57071e-06
-4.48967e-07
-4.06495e-07
-4.04461e-07
-1.33705e-08
2.62654e-08
-2.44397e-07
-1.54666e-07
-2.33073e-08
-2.82009e-07
-6.05667e-07
-5.47706e-07
-1.81893e-07
4.3281e-07
-1.96981e-07
-1.46661e-07
-1.1905e-06
3.90721e-07
2.04005e-06
-3.5622e-06
-9.6348e-06
-3.08435e-05
1.86078e-05
5.29114e-06
-1.92186e-05
8.96297e-06
1.68079e-05
5.1904e-06
7.00904e-07
3.82506e-07
7.76929e-08
1.54086e-06
-5.51732e-07
-2.33319e-07
5.44159e-07
1.64613e-06
6.37434e-07
-1.74777e-06
-1.74249e-06
-1.69484e-08
6.5197e-07
3.62707e-07
-5.06307e-08
-3.17509e-07
-1.50896e-07
-9.08772e-09
-6.53547e-08
-7.44326e-08
-3.61037e-08
-1.36079e-08
-4.8521e-08
-3.40109e-07
-2.44807e-07
3.24633e-07
-7.0098e-09
-7.71822e-07
-2.46778e-07
1.5249e-06
5.45257e-06
6.45803e-07
-4.3578e-06
-2.92432e-05
-1.9978e-05
1.90735e-05
-8.90864e-06
1.12172e-05
9.60345e-06
1.77552e-06
-1.24905e-07
-8.4609e-08
-2.43071e-07
2.18171e-08
8.63799e-07
1.73583e-07
1.39864e-07
4.9228e-07
1.11756e-06
3.99429e-07
-7.5285e-07
-5.65116e-07
1.83831e-07
4.46973e-07
1.16934e-07
-1.09386e-07
-7.35073e-08
-8.8831e-09
-3.50016e-08
-5.42111e-10
1.25478e-08
2.71797e-08
-5.82884e-09
4.20391e-10
-3.61536e-07
1.64015e-07
5.41705e-08
-4.5979e-07
-2.34365e-07
3.7297e-07
2.8277e-06
2.90738e-06
-9.19171e-07
-1.30716e-05
-3.10965e-05
1.05553e-05
1.05299e-06
2.16126e-06
2.72521e-06
5.93833e-07
1.91186e-07
-4.53157e-08
6.06245e-09
-9.19195e-08
1.80809e-08
2.32748e-07
1.85739e-07
6.30782e-09
2.82448e-07
3.63037e-07
2.39409e-08
-2.51341e-07
-4.39348e-08
2.15392e-07
8.2244e-08
1.4608e-09
-3.5665e-08
-3.74819e-09
-1.13182e-08
-1.47643e-09
-3.55575e-10
7.19786e-09
3.9034e-09
3.19102e-08
-2.1957e-07
-1.48103e-07
8.90681e-08
-2.23308e-07
-1.02923e-07
-5.33181e-08
7.29185e-08
1.59293e-06
6.4634e-08
-2.3177e-06
-1.81076e-05
2.03429e-06
4.43492e-06
-2.42842e-06
-2.60247e-07
2.11015e-07
3.23206e-08
5.27717e-09
8.87897e-09
5.49226e-10
-1.86751e-08
8.42028e-09
5.14203e-08
5.42241e-08
-9.9779e-09
7.37942e-08
5.8517e-08
-3.13584e-08
-3.65807e-08
2.58402e-08
2.54828e-08
1.68239e-08
-8.2284e-09
-2.18079e-09
1.3284e-09
3.52607e-10
2.91289e-10
3.23946e-12
8.63204e-10
6.73497e-09
-4.00613e-08
-1.84679e-07
-1.1424e-08
-3.68086e-08
8.60621e-09
8.60186e-08
-3.47455e-07
2.40197e-07
1.08441e-07
-1.04442e-07
-4.95223e-06
-4.78373e-07
3.00746e-06
-2.275e-06
-7.67177e-07
7.58775e-08
1.71545e-08
-4.47051e-09
-5.02012e-09
5.38142e-10
3.9262e-10
-3.75485e-10
-5.09797e-09
3.40353e-09
7.21133e-09
-4.19024e-10
1.01125e-08
3.93977e-09
-7.61428e-09
-2.46975e-09
7.14652e-10
2.36051e-08
-3.99097e-10
-5.09872e-10
3.31472e-10
7.37525e-11
-1.2756e-11
-3.47387e-11
2.93415e-11
-1.65207e-11
-9.5616e-09
-5.5347e-08
-8.52737e-09
3.24828e-09
-3.60557e-09
9.3161e-08
-7.66327e-08
-3.0433e-08
2.67064e-08
-7.91078e-09
-5.30423e-07
-4.40877e-07
1.05311e-06
-9.4562e-07
-2.95041e-07
7.61843e-09
1.14138e-08
-3.21163e-11
-1.82227e-12
-3.27525e-11
1.43517e-11
-6.03736e-12
-4.12399e-12
-8.6959e-11
4.87642e-11
-1.63089e-11
1.74578e-11
2.67728e-10
-1.47569e-10
-4.63798e-10
2.80684e-10
7.43374e-10
4.84831e-11
-2.57122e-11
3.5662e-12
2.74173e-13
-7.57662e-14
3.02866e-13
-4.28735e-13
-2.79751e-11
-3.8552e-10
-2.55668e-08
-3.00479e-09
1.69292e-08
6.7085e-10
2.98413e-08
3.20846e-09
-6.12684e-09
4.01877e-09
-5.73717e-10
-2.67875e-08
-1.05617e-07
2.09798e-07
-1.84156e-07
-6.67972e-08
-7.76037e-10
8.71585e-11
-2.18158e-13
-5.26657e-14
9.72332e-14
8.29403e-14
1.79014e-13
-2.08922e-14
3.95698e-13
-2.46732e-13
1.89187e-13
-7.21009e-13
1.05654e-11
-1.72192e-12
3.16479e-11
1.20846e-12
3.46212e-12
1.05619e-12
-1.3723e-13
-1.88126e-14
-2.43022e-15
4.43501e-18
4.70532e-17
-2.13786e-14
1.78166e-12
-3.54001e-11
-6.96728e-10
-1.97639e-09
1.45083e-09
-2.71661e-10
1.73435e-10
-8.6875e-10
-7.45762e-10
1.79816e-10
-2.21702e-10
-2.72205e-09
-1.76066e-08
2.34855e-08
-1.30583e-08
-1.71317e-08
-2.97502e-10
-1.40319e-12
-2.46631e-14
-3.5049e-15
4.49366e-17
-6.04388e-16
-1.20844e-15
1.93388e-16
-1.47607e-15
1.19428e-15
-7.22338e-16
-1.87816e-15
1.46111e-14
-9.03494e-15
1.54199e-13
4.64986e-15
8.01435e-15
5.9749e-15
-2.12217e-16
-4.97108e-16
-4.59458e-17
7.55514e-18
-4.19278e-17
4.78053e-17
-6.74536e-16
-9.08682e-14
-1.48975e-11
2.65769e-10
1.85787e-10
-4.54316e-12
3.68382e-13
-2.45096e-13
-2.3645e-11
-6.33108e-11
8.53504e-13
9.84593e-12
-5.67974e-11
3.36018e-10
-9.31054e-11
-6.48802e-11
-1.91961e-12
-5.06602e-15
1.01965e-16
7.24625e-18
-1.56022e-18
9.7833e-19
3.93758e-18
-1.89811e-18
3.09674e-18
-3.56413e-18
5.75895e-19
-2.53715e-18
7.37964e-18
-3.98959e-17
3.33896e-16
9.21273e-18
4.28799e-17
4.98853e-17
-5.78247e-18
-3.00783e-18
-3.56796e-19
-8.52833e-20
5.60368e-20
-6.23597e-19
-6.80902e-18
-1.70471e-16
-2.20235e-14
1.41241e-12
2.73029e-12
2.64844e-14
-4.41436e-15
2.5142e-15
-3.65792e-14
4.07331e-13
-1.84332e-14
3.85799e-14
-1.50829e-14
1.55972e-12
-3.39493e-14
-2.0346e-13
-6.34304e-15
4.16599e-17
3.11746e-18
1.38672e-19
-4.37219e-21
2.07649e-19
1.96185e-19
-1.01701e-18
2.97099e-19
-6.07267e-19
-1.90889e-18
8.12919e-19
1.4485e-19
-3.32797e-19
1.88616e-18
9.59895e-20
-1.38642e-20
1.17747e-19
-9.18644e-20
-3.09567e-19
-1.81148e-19
8.35462e-20
4.00077e-20
-2.18579e-20
-1.45389e-20
-2.18588e-19
-6.17401e-17
4.8722e-15
2.68907e-14
1.1375e-15
-2.81608e-17
3.48618e-17
8.29545e-17
-9.85313e-16
-2.16041e-16
-7.87447e-16
-4.62043e-17
3.42158e-15
9.11643e-16
-6.14595e-16
-1.79963e-17
4.98662e-19
4.41152e-19
-4.18453e-19
-2.09791e-19
5.38553e-20
-1.7018e-19
2.89642e-19
5.49585e-19
-9.53171e-19
-7.05404e-19
-1.54986e-18
7.26405e-19
-6.4339e-20
-1.06358e-19
-1.48572e-19
-2.61505e-19
-2.34132e-19
-5.1025e-19
-9.1699e-20
5.55738e-19
3.37092e-19
-6.44372e-20
-6.6856e-20
9.01341e-21
3.04567e-19
-6.36834e-19
9.63699e-18
1.60189e-16
5.47414e-18
1.07458e-18
-2.68242e-19
-6.67429e-19
1.61909e-18
6.65416e-19
9.47325e-19
5.43428e-19
-3.88446e-18
-2.15109e-19
3.05962e-18
6.10437e-20
4.55375e-19
-2.86783e-19
-6.76612e-19
5.00696e-19
-2.91772e-20
-7.06522e-20
-5.22074e-20
2.03329e-20
-1.7025e-19
-3.1913e-21
1.03889e-18
5.13888e-19
7.42133e-20
3.56703e-20
-1.01399e-19
-5.0214e-20
-5.13561e-19
-2.1811e-19
7.75546e-19
4.28182e-19
1.43798e-19
1.52479e-19
1.05144e-19
-1.112e-19
1.95353e-19
6.84105e-20
6.39559e-19
8.2788e-19
-3.09831e-20
-1.25168e-19
2.88474e-19
-4.5628e-19
5.61472e-20
-2.12418e-20
-9.03602e-21
-6.18936e-20
-1.61005e-19
2.36431e-19
5.6151e-19
-6.47629e-19
-2.41875e-19
5.40348e-19
-1.38122e-19
-2.1132e-19
3.80942e-19
8.68665e-20
-7.00456e-19
-4.98599e-19
3.04249e-19
2.2235e-20
4.11957e-19
-3.81655e-20
8.23535e-20
-1.70459e-19
-1.93782e-19
-9.74328e-20
1.21941e-19
1.18624e-19
2.70239e-19
-3.20497e-20
-1.62564e-19
-1.34547e-19
4.46876e-19
-1.71533e-20
2.57505e-19
-6.20254e-19
-5.133e-19
5.01004e-19
2.50993e-19
2.27899e-20
-1.28722e-19
2.25097e-20
-7.69805e-20
-3.19517e-20
6.26236e-21
1.23027e-20
9.27961e-20
-1.29364e-19
1.28131e-19
1.83605e-20
1.23894e-20
3.1254e-19
1.14444e-19
-7.26003e-19
-3.68115e-19
5.86383e-20
9.3447e-19
1.13354e-18
-2.12446e-18
-3.33307e-19
5.22806e-19
5.17792e-20
2.34344e-19
3.56866e-19
-5.1634e-20
-1.74562e-19
4.67413e-19
-4.98405e-20
2.86319e-20
7.78186e-21
-7.41407e-20
-4.2659e-20
-3.51286e-20
-1.57247e-19
-2.42326e-19
3.35408e-19
-3.88401e-19
-2.39729e-20
1.80509e-20
7.5697e-20
4.7329e-21
-6.7017e-20
7.57533e-20
-6.12512e-20
-1.68003e-19
-5.6702e-20
1.20173e-19
1.23817e-19
1.10125e-20
-1.96618e-19
-8.21394e-20
-8.20412e-20
3.30039e-19
2.35148e-19
-3.79648e-19
-6.61487e-20
4.25764e-20
-1.98331e-19
-8.76305e-19
-1.88582e-19
-7.89938e-20
2.63223e-19
-1.33838e-19
-1.20382e-19
9.12741e-20
-1.74317e-20
6.41049e-20
-3.618e-20
6.91141e-22
8.76158e-20
-3.20599e-20
-2.73404e-20
-1.30827e-19
-2.59832e-19
4.44236e-20
1.45259e-19
6.5049e-21
-2.51302e-21
-6.83403e-20
3.58036e-19
2.57334e-20
-2.7457e-20
-4.90755e-22
1.32744e-19
-6.01444e-20
-1.17539e-19
-9.53783e-20
-4.96754e-20
-6.53217e-20
4.42358e-21
1.60271e-19
8.21222e-20
8.95331e-20
2.98772e-19
-2.26832e-20
-1.90285e-20
-2.89079e-19
3.45029e-19
2.65547e-19
5.26972e-21
-5.07865e-20
-5.97614e-20
1.06744e-19
-4.2302e-20
-2.26503e-20
6.31805e-20
2.36379e-20
-1.20246e-20
7.50689e-21
-8.28518e-20
1.41852e-19
-7.01812e-20
9.7159e-22
2.34824e-19
4.52267e-20
-3.40824e-20
-7.09509e-21
-6.64981e-20
-2.86857e-19
-3.58284e-20
1.6293e-19
4.62712e-20
-1.20416e-19
-8.08894e-20
-2.36819e-20
2.94474e-20
-1.01438e-19
-9.51416e-20
-2.63638e-20
2.3416e-20
4.68576e-20
3.75207e-19
1.70175e-19
6.38176e-20
8.6021e-21
2.54614e-20
7.99449e-20
1.75533e-21
-4.13207e-20
5.00711e-20
-8.90445e-21
8.17228e-20
2.33896e-20
3.2309e-20
1.54948e-20
6.66739e-21
2.19599e-20
-2.37911e-20
-2.38784e-21
2.26064e-19
6.25129e-19
-4.73719e-19
-8.56394e-19
-5.25678e-22
7.43829e-21
3.44681e-20
-2.04113e-19
7.12165e-20
-4.34024e-20
-9.01117e-20
-4.2711e-20
1.46707e-20
1.93973e-20
6.3851e-20
6.0529e-20
-1.11426e-19
-3.51304e-19
-2.35242e-19
5.4817e-20
4.30938e-20
-3.05885e-20
-5.7086e-20
-5.79008e-20
-9.84559e-21
-1.19877e-20
-3.47483e-21
1.89353e-19
7.21011e-20
-2.1087e-20
-1.50615e-19
3.1512e-20
1.13337e-20
3.11977e-20
4.52143e-20
-1.41376e-19
8.71704e-21
5.74837e-20
5.91593e-20
-5.54928e-20
-2.79705e-19
-5.01329e-19
9.15665e-19
6.13218e-19
-1.2911e-19
-2.87346e-19
1.51845e-19
5.68696e-20
-1.34368e-20
-8.98705e-20
5.38929e-20
-3.81248e-20
1.11767e-20
3.89607e-21
1.94081e-20
7.55076e-20
8.46467e-20
-2.28882e-19
-2.53985e-19
9.6848e-20
-1.01086e-19
-6.77725e-20
5.86351e-20
-7.3648e-24
6.01971e-20
-1.06457e-19
1.45589e-20
1.34223e-19
8.21683e-21
8.30836e-20
-9.16753e-20
-9.07137e-20
2.26083e-20
1.4119e-19
-7.59235e-20
-4.82326e-06
-7.33297e-06
-8.31375e-06
-5.74338e-07
1.60262e-05
2.6411e-05
2.25337e-05
1.16585e-05
6.12218e-07
-1.04885e-06
-4.73953e-06
-1.07166e-06
1.58826e-05
3.95599e-05
7.70233e-05
0.000137487
0.000191698
0.000196245
0.000135417
2.22668e-05
-5.19864e-05
-6.48661e-05
-1.19299e-05
1.1949e-05
5.05419e-05
6.95831e-05
2.1095e-05
-4.41489e-05
-5.29607e-05
1.31673e-06
0.000106235
0.000177261
0.000176859
7.73948e-05
-1.61584e-05
-1.17044e-05
-4.37971e-05
1.76003e-05
1.27143e-05
1.05245e-06
2.64189e-05
2.09238e-07
-7.28135e-06
-2.20638e-05
-4.41312e-05
-3.11883e-05
1.16226e-05
3.20404e-05
2.61502e-05
2.41287e-05
-1.50802e-05
-9.95792e-05
-0.000192246
-0.000269031
-0.000326412
-0.000352697
-0.000344266
-0.000276555
-1.79547e-05
0.000344645
0.000400843
9.04615e-05
-4.69541e-05
-6.8369e-05
-8.23466e-05
1.50082e-05
0.000205342
0.000293478
0.000131212
-0.000186019
-0.000371892
-0.000263012
0.000123951
0.00052023
0.000470945
-2.17492e-05
-6.11687e-05
0.000227197
0.000149077
6.46509e-05
2.93912e-05
1.2991e-05
2.40999e-06
-1.0473e-05
-3.64156e-05
-4.73427e-05
-2.76771e-05
-8.56745e-07
1.70221e-05
2.83813e-05
2.11016e-05
-2.52733e-05
-9.34627e-05
-0.00015606
-0.000216201
-0.000279349
-0.000324615
-0.000317135
-0.000184883
7.76533e-05
0.000210846
0.000144918
5.68204e-05
1.97944e-05
-9.13484e-05
-0.000113444
1.76063e-05
0.00013233
8.99688e-05
-6.76988e-05
-0.000230028
-0.000259582
-0.000125617
8.94423e-05
0.000166726
2.74061e-05
6.30474e-06
4.55594e-05
8.32372e-05
4.57355e-05
8.25552e-06
4.93563e-06
1.81918e-06
-2.8243e-06
-1.41544e-05
-2.40481e-05
-1.89072e-05
-5.6402e-06
5.21944e-06
9.44618e-06
1.26333e-05
8.62608e-07
-2.41818e-05
-5.22157e-05
-8.84148e-05
-0.000129832
-0.000157264
-0.00015836
-0.000112296
-1.49748e-05
4.25198e-05
4.35955e-05
2.9224e-05
1.56528e-05
-6.24578e-05
-0.000101342
-4.25898e-05
1.94057e-05
1.39461e-05
-3.28701e-05
-8.95558e-05
-0.000116246
-8.66927e-05
-1.65985e-05
2.57686e-05
-1.13204e-05
-1.30682e-05
2.06632e-05
1.49305e-05
8.72425e-06
-2.38553e-07
8.61637e-07
6.07711e-07
-3.43677e-07
-1.72797e-06
-2.62174e-06
-2.64188e-06
-8.32013e-07
5.83982e-07
6.22542e-07
1.51364e-06
2.0948e-06
-5.16939e-07
-5.12104e-06
-1.3842e-05
-1.8882e-05
-1.61152e-05
-1.37316e-05
-7.35097e-06
2.89291e-06
-1.37988e-05
8.16705e-06
-6.22242e-06
-1.19689e-05
-2.26624e-05
-2.72761e-05
-1.10096e-05
3.63865e-06
1.73045e-06
-1.00812e-06
-4.76308e-06
-8.9509e-06
-6.9214e-06
-4.24912e-07
3.95452e-07
-1.24281e-05
-1.26212e-06
1.35138e-05
1.48529e-06
-5.74735e-06
-3.85052e-06
-7.79553e-07
4.56021e-07
3.10332e-07
1.15462e-07
9.57385e-08
-5.55359e-07
-9.22336e-07
-6.5222e-07
8.69012e-08
-2.94135e-07
9.03931e-07
2.25767e-06
2.65202e-06
-4.03035e-07
-1.66205e-06
1.28997e-06
1.57475e-06
3.24237e-07
5.99342e-06
-2.16662e-05
5.0889e-06
3.15489e-06
-2.13792e-05
-8.70237e-06
-1.86637e-06
-3.169e-06
3.11633e-07
2.80874e-07
-3.8884e-07
-2.16243e-07
-2.62697e-07
-4.11209e-07
-6.39715e-07
-1.77424e-06
-6.31945e-06
2.41926e-06
1.24769e-05
7.06591e-07
-8.37836e-06
-4.21235e-06
-1.41142e-06
-2.33917e-07
5.06205e-07
9.08258e-07
8.22519e-07
1.57288e-08
-5.88321e-07
-9.89392e-07
1.07411e-07
1.03898e-07
5.56363e-08
2.00844e-06
3.23377e-06
2.67247e-06
2.042e-06
2.16036e-06
2.02451e-06
9.608e-07
3.02874e-06
-1.30829e-05
-1.29964e-05
1.09897e-05
-1.32626e-05
-3.16444e-07
5.5227e-06
5.84716e-07
9.94654e-09
3.40082e-07
-1.60845e-07
-2.65981e-07
1.63068e-07
1.88817e-07
-1.76917e-07
-2.63881e-07
-2.80633e-06
-1.07356e-06
8.18854e-06
2.32613e-06
-4.76794e-06
-1.90217e-06
-1.02713e-06
-6.10985e-07
3.2291e-07
1.0139e-06
8.50625e-07
2.69887e-07
-1.30164e-07
-7.99909e-07
-3.76325e-07
6.09425e-07
-2.75264e-07
1.11915e-06
2.18298e-06
2.46765e-06
1.93031e-06
6.51695e-07
8.4355e-07
5.65793e-07
-1.04151e-07
-6.53666e-06
-2.1669e-05
7.54599e-06
-1.32404e-06
1.03422e-06
3.00205e-06
4.62117e-07
-1.33604e-08
4.49365e-08
5.29013e-08
-9.02246e-08
-1.25585e-07
-1.15626e-07
-1.4186e-08
2.88221e-07
-7.58558e-07
-2.17809e-06
2.10102e-06
1.68124e-06
-1.69796e-06
-3.77646e-07
-1.61243e-07
-3.46516e-07
4.90089e-09
6.63863e-07
5.73617e-07
2.87889e-07
2.76259e-08
-4.08099e-07
-7.41747e-07
3.33642e-07
-8.91496e-08
3.29482e-07
1.16148e-06
1.67324e-06
1.05572e-06
-1.2157e-07
1.8099e-07
1.21514e-07
-1.71144e-07
-3.80346e-06
-1.63395e-05
2.55366e-06
2.78352e-06
-1.21534e-07
7.09657e-07
1.1759e-07
-1.3972e-08
-1.12656e-08
-7.46287e-09
9.08312e-09
3.43201e-08
-4.47081e-08
1.2917e-07
2.17692e-08
7.5454e-08
-9.3068e-07
-1.8932e-07
6.47356e-07
-5.36138e-07
3.55869e-08
2.70102e-07
-3.66138e-08
-1.05073e-07
2.83194e-07
2.52111e-07
1.74412e-07
4.32695e-08
-6.60907e-08
-5.30444e-07
-2.04861e-07
9.64332e-08
-8.85732e-08
5.7188e-07
9.09599e-07
5.30479e-07
-5.82613e-08
-5.68985e-08
1.00498e-08
3.0118e-10
-1.4489e-06
-8.52553e-06
-1.04937e-08
2.20355e-06
-6.5155e-07
-6.68206e-08
8.55961e-09
1.49656e-09
-6.60898e-09
-6.30021e-09
-2.35183e-09
1.1738e-08
-7.14092e-09
4.46178e-08
1.20665e-08
4.49697e-08
-1.64562e-07
-2.28506e-07
9.72003e-08
-1.08312e-07
3.8283e-08
1.25877e-07
8.19046e-08
-4.895e-08
1.10104e-07
7.4208e-08
2.83739e-08
1.05371e-08
-2.03042e-09
-1.39572e-07
-2.01427e-07
4.15436e-08
-8.84385e-08
2.09712e-07
3.29513e-07
1.67278e-07
1.74061e-08
-5.60113e-08
-1.22315e-08
5.82452e-09
-2.98504e-07
-3.34142e-06
-5.15608e-07
9.12537e-07
-5.81615e-07
-1.64353e-07
1.48219e-10
3.91502e-09
-3.05437e-09
-3.14283e-10
-3.78901e-10
-1.14615e-09
5.99796e-10
-2.07137e-09
1.62745e-08
-4.56225e-10
-1.26281e-09
-6.15469e-08
-5.60517e-09
-4.6254e-09
4.27031e-08
7.88296e-08
-2.5473e-08
-5.62737e-08
3.141e-08
1.05763e-08
7.17252e-09
2.92569e-10
-6.23724e-09
-1.84786e-08
-6.36583e-08
-5.66265e-10
1.72657e-09
3.65202e-08
6.19347e-08
3.36685e-08
2.22831e-08
-2.26465e-09
-9.10069e-09
5.20353e-09
-2.84707e-08
-9.67147e-07
-2.6597e-07
2.76517e-07
-2.66569e-07
-6.50088e-08
7.90167e-09
2.63093e-10
-1.59906e-11
1.15166e-12
6.00825e-12
-6.06461e-11
-7.70276e-12
-4.21942e-10
1.71199e-09
4.56931e-11
7.3464e-09
-2.57485e-09
-5.2704e-09
-9.91543e-09
8.02183e-10
1.87401e-08
-8.82688e-09
-2.20417e-09
2.97532e-09
8.04219e-10
6.3582e-11
1.88763e-11
-5.01679e-11
-1.67323e-10
-1.42067e-08
-1.58048e-09
9.67737e-10
2.30855e-09
1.74367e-08
1.13549e-09
2.02035e-09
1.23358e-09
-7.55683e-09
1.22853e-09
-7.65719e-09
-2.32275e-07
-7.28678e-08
6.17008e-08
-6.28371e-08
-1.19693e-08
6.47528e-10
1.35879e-11
-2.37665e-13
-1.85246e-14
-6.00741e-14
4.64139e-13
2.66688e-13
4.46279e-12
-1.91651e-11
3.24926e-11
-4.00365e-12
-3.72622e-11
-1.56505e-10
-4.07298e-10
3.11958e-10
9.7306e-10
-5.6191e-10
-1.05756e-10
3.14529e-11
3.20296e-12
3.94897e-13
-2.75421e-13
2.45059e-12
1.86775e-11
-1.0225e-11
5.60979e-10
1.0115e-09
4.04466e-11
1.09313e-10
6.00765e-11
-8.84824e-12
8.89046e-11
2.54938e-11
5.52166e-11
-4.43419e-10
-6.37429e-08
-4.57393e-09
3.05392e-09
-1.4782e-08
-3.27312e-10
6.87609e-12
3.55827e-13
4.66758e-15
4.2281e-16
4.06038e-16
-1.9614e-15
-4.35135e-15
-2.74167e-14
1.363e-13
-1.88793e-13
-3.63111e-16
5.91714e-14
-8.58798e-13
1.56699e-11
1.3941e-12
4.19041e-12
-2.96788e-12
-3.71728e-13
1.02873e-13
3.76946e-15
-3.80631e-16
-1.68724e-16
8.85884e-15
-4.90712e-14
-4.96618e-14
1.73645e-12
1.25104e-11
8.59303e-13
5.41745e-13
1.93919e-13
8.95993e-14
-6.52375e-13
2.41909e-13
-2.13901e-14
1.24327e-10
-1.50877e-10
7.0503e-10
2.14733e-10
-2.06579e-10
-1.23105e-11
-2.45263e-14
5.8733e-15
1.55231e-17
-1.95692e-18
-9.2785e-19
1.27221e-18
1.24312e-17
7.61713e-17
-5.83399e-16
6.67971e-16
1.11043e-16
4.9835e-16
-3.80197e-15
6.81832e-14
4.32455e-15
6.46191e-15
-6.94231e-15
-4.62851e-15
-6.16656e-16
-1.35434e-17
-9.24458e-19
4.82606e-20
-2.3993e-18
3.53854e-17
1.91629e-16
-1.82802e-15
1.16208e-13
2.02524e-14
2.10249e-15
8.82397e-16
-3.03276e-16
4.20111e-15
-7.27167e-15
-3.83581e-15
-4.28769e-13
-7.41823e-14
2.52505e-12
2.51679e-12
-1.1423e-12
-4.29068e-14
3.73379e-15
1.86975e-16
4.58688e-18
1.68684e-19
-1.37729e-19
1.17429e-19
3.85766e-19
9.40621e-19
5.15313e-19
-2.28777e-19
2.4655e-18
-3.87681e-18
-2.37035e-17
1.99642e-16
9.56784e-18
1.09349e-17
-9.2798e-17
-4.39098e-17
-3.06574e-18
9.02675e-20
3.23544e-20
-2.19992e-20
5.42869e-20
2.0464e-19
-4.13812e-19
-4.57884e-17
7.99694e-16
3.06967e-16
2.62112e-18
6.9282e-18
9.70107e-19
-1.19994e-17
5.04974e-17
-4.19783e-18
4.94954e-16
-1.74577e-16
6.56928e-15
1.59016e-14
-2.78065e-15
8.29324e-16
1.09604e-16
3.59662e-18
2.71198e-20
4.45708e-19
-3.9544e-19
-2.03199e-19
1.56421e-19
3.67266e-19
2.66477e-19
-1.04365e-18
8.23402e-19
3.51245e-19
9.70925e-20
1.50709e-18
-1.78452e-20
-3.15977e-21
-4.7301e-19
-2.91233e-19
3.23287e-19
1.11802e-19
-8.70333e-20
-3.73596e-20
5.38921e-20
-1.41604e-19
2.26466e-18
-2.49584e-18
3.53096e-18
4.89948e-18
5.04339e-20
-5.20837e-19
3.07825e-19
3.51864e-19
-1.72494e-19
-3.8847e-20
-4.985e-19
-7.11053e-19
5.20206e-18
4.60668e-18
6.32772e-17
2.1696e-17
1.15281e-18
-7.35924e-20
5.15759e-19
9.20966e-20
-3.82796e-19
-8.01949e-20
2.31198e-19
-4.41369e-21
-1.97365e-19
7.60058e-19
1.21549e-18
9.86974e-20
-1.58591e-19
-1.48881e-19
-1.81794e-19
7.04987e-20
-4.61385e-20
-9.25018e-20
-1.75881e-19
-1.43968e-19
3.09371e-20
-3.00037e-20
1.88193e-20
1.19687e-20
1.21335e-19
1.33475e-18
-1.2377e-18
1.77976e-19
1.52131e-19
1.03442e-19
-2.97728e-19
-1.06512e-20
8.49406e-20
4.82059e-20
-6.46447e-20
-1.12708e-19
-1.68272e-19
5.1969e-19
1.07056e-18
-2.36662e-19
-7.26523e-20
5.5905e-20
1.55577e-19
1.22303e-19
-2.81864e-19
-8.84885e-20
-9.48314e-19
-1.69733e-19
1.70619e-18
-2.90567e-19
8.29782e-19
1.24134e-19
1.08015e-19
-1.47952e-19
-9.25058e-20
-6.84624e-20
-1.17933e-19
7.04307e-20
-1.61092e-19
3.42379e-20
-1.14064e-19
-2.79105e-20
1.77798e-19
-1.54802e-19
8.02567e-20
3.92534e-19
-4.16554e-19
1.15029e-19
1.00859e-19
-5.48878e-20
9.62434e-20
-1.49641e-21
-4.57386e-20
5.35851e-21
-3.62915e-20
-5.15194e-22
1.5221e-20
-4.06831e-20
1.74021e-19
4.09761e-20
-3.77252e-20
9.05441e-20
-3.72021e-19
4.19016e-19
8.75322e-20
1.61523e-19
9.42684e-19
-3.3692e-18
-1.48837e-18
1.23562e-18
2.98895e-20
2.74954e-19
8.75515e-20
2.37871e-19
3.9651e-19
1.88734e-19
6.57052e-20
1.51154e-20
1.12162e-20
2.01131e-19
-1.15552e-19
-2.44517e-20
2.05967e-19
2.52112e-19
-4.69896e-19
3.50088e-19
1.23764e-19
-4.2429e-19
6.88444e-21
-4.70841e-20
4.44241e-20
-9.10134e-21
-6.98811e-20
3.56815e-21
5.8684e-20
-1.91105e-20
-9.75067e-21
-2.42187e-20
4.58285e-20
-9.08613e-20
-2.31083e-19
-2.80403e-19
-8.29427e-20
-2.28452e-19
2.96236e-19
-6.45431e-20
-2.44769e-19
7.10238e-20
-6.49543e-19
1.23051e-18
8.7623e-20
-2.85686e-19
-1.08576e-18
-8.36212e-19
-6.64588e-21
1.24293e-19
9.55145e-21
-8.64274e-20
2.36714e-20
-1.61098e-20
9.19471e-20
-4.05028e-20
-1.24437e-19
-3.75497e-20
1.60967e-20
-2.07257e-19
1.42225e-19
3.47306e-20
-1.66261e-19
3.12379e-20
8.57093e-20
1.62987e-19
1.1831e-20
-7.20081e-21
-1.66613e-21
-8.71617e-20
4.32439e-20
-3.58375e-20
-1.44987e-20
1.6987e-19
-1.92148e-20
-3.37124e-19
-1.18619e-19
-6.05546e-20
-1.90841e-19
1.25683e-20
-7.25601e-20
7.48915e-21
-3.53328e-19
-4.77477e-19
4.94249e-20
3.76382e-20
1.15772e-19
1.0952e-19
-4.82451e-20
-6.47221e-20
6.48122e-20
6.58976e-20
-6.9758e-20
-6.13456e-20
4.68103e-20
-4.21203e-20
1.13814e-19
-2.15518e-19
-2.58149e-19
5.38724e-21
-4.74276e-20
-2.89356e-20
-1.52816e-19
-3.56409e-20
1.07564e-19
-3.59589e-20
-1.81968e-19
1.07647e-20
-2.7223e-20
7.47142e-20
4.23789e-20
3.19624e-20
-1.07688e-20
-2.52032e-20
4.0629e-19
3.07471e-19
-1.83793e-19
6.57639e-20
-2.08125e-20
1.15258e-20
-1.32185e-19
3.18958e-19
9.95461e-20
-2.5664e-20
7.91733e-20
-4.06016e-20
7.68158e-20
6.24809e-20
1.1775e-19
2.09512e-20
-1.7339e-20
-4.6257e-21
1.1597e-20
-8.95056e-20
1.14013e-19
1.09156e-20
9.41459e-20
5.32812e-19
-1.8092e-19
-2.46256e-19
2.33009e-19
-8.65353e-20
2.71752e-20
-1.15592e-20
-1.56393e-19
1.06765e-19
4.56695e-20
2.37957e-20
5.58345e-21
4.95507e-20
1.03966e-19
-2.01913e-20
-2.72913e-19
-8.72453e-20
2.53698e-20
1.31357e-19
1.37967e-20
-1.63138e-19
-2.7817e-21
1.24344e-19
1.96481e-19
3.70398e-21
-1.37298e-21
-1.23527e-19
1.72574e-20
2.2168e-19
-5.70143e-20
4.27495e-20
-3.36994e-19
1.33227e-19
9.31623e-20
1.48552e-19
-1.39153e-19
6.12727e-20
-3.44454e-19
-7.70132e-19
-7.34262e-20
-5.8742e-20
2.62325e-19
-5.24484e-20
5.45833e-21
5.38843e-20
1.06091e-19
-8.3175e-20
-8.48917e-21
-1.00216e-20
3.55153e-20
4.74337e-20
-3.38063e-20
2.19371e-20
1.08621e-19
-2.79436e-20
6.8697e-20
2.28848e-20
2.95692e-21
-3.62843e-20
-8.83473e-20
6.05334e-20
5.16012e-20
3.32571e-21
2.05481e-19
4.15393e-20
2.56157e-19
-3.27487e-20
-8.36817e-20
2.67192e-19
2.88107e-19
-5.54272e-19
1.86594e-06
1.40129e-06
-1.94763e-06
7.76498e-06
1.69949e-05
1.58114e-05
1.05701e-05
-4.41622e-06
-1.25951e-05
-6.42765e-06
3.90163e-06
9.09994e-06
1.14939e-05
2.45391e-05
8.09647e-05
0.000130757
0.000166704
0.00022272
0.00030711
0.000216478
-2.35174e-05
-3.69336e-05
-1.12844e-05
1.9569e-06
-1.61797e-05
-2.9151e-05
-2.91221e-05
-3.23607e-05
-1.16348e-05
6.14627e-05
0.000161349
0.000198495
0.000137024
4.32071e-05
1.27749e-06
1.33234e-06
-2.14956e-05
-1.65277e-05
-5.07947e-07
5.38608e-06
0.000131288
0.000112538
4.9407e-05
-2.21363e-05
-5.32421e-05
-3.39052e-05
-2.48961e-06
1.85992e-05
7.01636e-06
-3.39037e-05
-9.72133e-05
-0.000173999
-0.000240737
-0.000284899
-0.000311567
-0.00034793
-0.00041862
-0.000485182
-0.000298572
0.000303362
0.00069904
0.000427315
0.000109684
0.000176539
0.000267599
0.000291681
0.000210684
2.68468e-05
-0.000228555
-0.00044288
-0.000424906
-8.19429e-05
0.000333153
0.000441306
0.000218689
-1.02086e-05
2.20967e-05
8.59037e-05
7.0281e-05
9.56886e-05
7.88347e-05
7.4617e-05
3.94904e-05
-1.57788e-05
-4.77859e-05
-3.839e-05
-1.79725e-05
4.57894e-06
1.5076e-05
6.43203e-07
-3.34731e-05
-7.66408e-05
-0.000115587
-0.000145915
-0.000200347
-0.000257037
-0.000319383
-0.000410485
-0.000460429
-0.000178729
0.000284152
0.00027396
7.78129e-05
0.000104109
0.000159647
0.00016175
0.000122209
4.1139e-05
-8.64122e-05
-0.000244266
-0.000339734
-0.000250596
-3.03434e-05
0.000110568
8.582e-05
1.50808e-05
2.04549e-05
4.39283e-05
3.89652e-05
5.11767e-05
2.02548e-05
1.76586e-05
9.88922e-06
-4.01495e-06
-1.35337e-05
-1.11964e-05
-4.95342e-06
3.70834e-06
1.15423e-05
9.62591e-06
-2.07104e-07
-1.47901e-05
-3.29397e-05
-5.54765e-05
-8.71826e-05
-0.00011299
-0.000127947
-0.000153526
-0.000198259
-0.000144627
4.66789e-05
6.37923e-05
-8.38255e-06
2.59519e-05
5.14977e-05
5.79818e-05
4.85229e-05
2.02358e-05
-2.37175e-05
-8.41987e-05
-0.000137623
-0.00013056
-6.10612e-05
-1.31229e-06
4.46513e-06
-1.08794e-05
4.77337e-06
3.00123e-05
1.81087e-05
1.34094e-05
6.16179e-06
1.11518e-06
1.03472e-06
1.07575e-08
-1.91792e-06
-2.34525e-06
-1.7193e-06
-7.95835e-07
9.07338e-07
1.57398e-06
1.099e-06
-8.97755e-07
-4.16053e-06
-9.0053e-06
-1.33641e-05
-1.2892e-05
-9.87029e-06
-9.6623e-06
-1.58477e-05
-1.71035e-05
9.32214e-06
1.82992e-06
-1.95422e-05
-4.01416e-06
-8.22154e-06
1.94089e-06
5.92654e-06
1.53742e-06
-2.8755e-06
-8.57598e-06
-1.64225e-05
-1.73561e-05
-6.58529e-06
1.4392e-06
-3.10969e-06
-5.04893e-06
3.82631e-06
7.13355e-06
2.3504e-06
-5.03994e-07
4.51932e-06
-7.98242e-07
-1.09958e-07
6.58033e-07
3.71542e-07
2.78308e-09
6.82522e-08
-1.61534e-07
-5.03846e-07
-3.28105e-07
1.33025e-07
5.81334e-07
6.51764e-07
6.38392e-07
1.12794e-06
1.69205e-06
8.85208e-07
3.17326e-07
4.46239e-07
-2.54939e-06
2.99575e-06
-1.9737e-07
6.19911e-07
1.65419e-06
-1.75603e-05
-7.41347e-06
3.42878e-07
2.155e-07
-5.3852e-07
-6.53264e-07
-2.43347e-07
-1.08832e-06
-1.06641e-06
6.18549e-08
-1.36526e-06
1.56683e-07
6.49293e-06
1.29915e-06
-7.09486e-06
-5.2638e-06
1.63944e-06
1.52111e-06
-6.5847e-07
9.21406e-07
8.37228e-07
4.80959e-07
5.47528e-07
6.07247e-07
-1.37973e-10
-3.62002e-07
-4.31559e-07
3.40406e-07
1.1404e-06
2.33192e-06
3.6903e-06
2.6469e-06
3.22245e-07
-1.41654e-07
3.75065e-07
4.09937e-07
9.9714e-07
1.02554e-07
1.61184e-07
9.29547e-06
-7.14559e-06
-4.385e-06
3.64457e-07
6.13246e-07
-9.43315e-08
-1.45013e-07
6.79677e-07
5.81187e-07
-2.85504e-07
-1.31021e-08
-2.28681e-07
-2.84302e-07
4.12359e-06
2.42502e-06
-6.48808e-06
-5.54517e-06
1.39308e-07
3.29084e-06
-1.02983e-06
6.22279e-07
9.58917e-07
5.32309e-07
4.06908e-07
4.92836e-07
3.56511e-07
1.54884e-07
-1.3107e-07
2.47946e-07
1.10057e-06
1.91372e-06
2.18905e-06
9.27148e-07
-1.67411e-07
-1.47716e-07
-2.76163e-08
3.96268e-07
-2.29416e-07
-1.6585e-06
-6.36103e-06
6.65811e-06
-3.59134e-07
-1.14849e-06
4.16432e-07
6.47e-07
1.64295e-07
2.94524e-08
1.85649e-07
1.78461e-07
2.75498e-08
1.60076e-07
1.06075e-07
-4.25507e-07
7.17518e-07
1.53265e-06
-3.13886e-06
-3.59477e-06
5.30004e-07
2.73381e-06
-5.27949e-07
-5.36822e-08
6.27073e-07
3.79098e-07
2.11382e-07
1.54102e-07
1.54402e-07
3.41295e-08
1.82071e-07
1.61962e-07
8.94324e-07
1.25793e-06
7.02534e-07
5.42597e-08
-1.72857e-07
-1.24624e-07
-1.97477e-08
3.94028e-08
-1.87138e-07
-1.92433e-06
-5.52869e-06
2.15214e-06
7.38842e-07
-1.58056e-07
2.6486e-07
2.75191e-07
7.78318e-08
1.03768e-09
9.9222e-10
8.87547e-09
-6.6216e-10
1.03324e-07
4.43026e-08
-4.81498e-08