/*--------------------------------*- C++ -*----------------------------------*\
| =========                 |                                                 |
| \\      /  F ield         | OpenFOAM: The Open Source CFD Toolbox           |
|  \\    /   O peration     | Version:  5.0                                   |
|   \\  /    A nd           | Web:      www.OpenFOAM.org                      |
|    \\/     M anipulation  |                                                 |
\*---------------------------------------------------------------------------*/
FoamFile
{
    version     2.0;
    format      ascii;
    class       volScalarField;
    location    "50.4676134421789371";
    object      TDvT;
}
// * * * * * * * * * * * * * * * * * * * * * * * * * * * * * * * * * * * * * //

dimensions      [0 1 -2 1 0 0 0];

internalField   nonuniform List<scalar> 
60000
(
-4.53028e-06
-3.65679e-06
-8.3783e-07
-5.95905e-07
-1.02035e-06
-5.19113e-08
-4.47614e-08
2.2862e-08
3.31312e-07
2.04673e-07
-1.05367e-06
-1.66168e-06
-9.11988e-08
-1.49823e-07
-4.15503e-07
-4.86881e-07
-1.37959e-06
-2.22687e-06
1.23893e-07
-2.13602e-07
-3.41716e-06
-3.45996e-06
-1.00554e-06
-2.97109e-06
-1.9665e-05
-3.49846e-05
-2.36826e-05
-5.99911e-06
-1.86065e-06
-1.3043e-06
-4.85529e-07
-8.59826e-07
-1.48287e-06
-2.44349e-06
-3.17676e-06
-6.4997e-07
-6.72637e-07
-2.35923e-07
-7.34601e-07
-3.01316e-06
-7.02405e-07
-9.65365e-07
-1.79058e-06
-2.04691e-06
-5.67137e-07
2.98001e-07
-6.66645e-07
6.05724e-07
5.6631e-07
-1.62241e-06
3.70537e-07
6.74145e-06
8.53381e-06
4.43355e-06
2.42714e-06
2.99741e-06
1.96189e-06
-4.47491e-06
-9.98649e-06
-1.14561e-05
-7.03669e-06
3.04877e-06
2.09779e-05
3.19879e-05
1.9536e-05
-2.53438e-05
-6.63061e-05
-6.25428e-05
-2.46296e-05
2.77969e-06
2.39823e-06
-8.41349e-06
-1.30254e-05
-6.26706e-06
2.26901e-06
2.74868e-06
-4.66197e-07
-2.65146e-06
-5.0782e-06
-3.10946e-06
1.00664e-06
4.30292e-06
2.11567e-06
-2.73861e-07
5.99321e-07
7.58364e-07
-2.20847e-07
-3.84643e-08
-2.65611e-07
-3.31941e-06
-3.14204e-06
3.76485e-06
7.453e-06
4.0489e-06
8.81599e-07
1.70366e-06
3.35052e-06
3.97441e-07
-6.79677e-06
-8.72794e-06
3.60945e-06
1.32164e-05
1.51933e-05
2.45233e-05
4.07221e-05
3.13835e-05
-8.89759e-06
-3.07662e-05
-1.75108e-05
-6.06626e-07
2.40559e-06
-2.60635e-06
-5.90815e-06
-4.70358e-06
1.41464e-06
3.38395e-06
2.95707e-06
4.9103e-07
-2.18906e-06
-2.77202e-06
2.67232e-06
4.71021e-06
1.50573e-06
2.38843e-08
1.08157e-06
5.95882e-07
9.49458e-08
9.55426e-09
1.28129e-07
-5.15638e-07
-2.72157e-07
2.79566e-06
3.55055e-06
9.23368e-07
2.14849e-07
2.47575e-06
5.56259e-06
5.53654e-06
9.40783e-07
1.85797e-06
8.98412e-06
1.51799e-05
1.36804e-06
1.30105e-05
4.38667e-05
4.87212e-05
2.18123e-05
-2.54773e-07
-1.4787e-06
-6.00618e-07
-1.94602e-06
-1.7247e-06
-9.5303e-07
1.10974e-07
2.54896e-06
1.76439e-06
2.22916e-07
1.03949e-06
3.57981e-07
-3.4249e-07
1.01772e-06
2.21222e-06
8.6481e-07
1.36215e-07
3.54762e-07
1.09213e-07
-4.50097e-08
-5.47851e-08
1.39326e-07
1.5168e-07
2.44857e-07
9.36982e-07
2.14389e-06
1.35834e-06
6.13397e-07
1.87363e-06
3.25163e-06
2.67328e-06
2.04495e-06
3.17134e-06
-5.2263e-06
8.08986e-06
1.21714e-06
9.9093e-06
2.43798e-05
1.69676e-05
6.08249e-06
2.37774e-07
2.36143e-06
1.47996e-06
-1.4192e-06
-8.48253e-07
-1.19863e-07
5.0267e-08
9.11796e-07
1.27081e-06
5.15239e-08
3.97628e-07
7.43621e-07
1.04921e-07
2.1268e-07
5.204e-07
3.05521e-07
2.76887e-08
1.4961e-09
-1.23661e-07
-1.08206e-07
-8.12506e-08
-3.67811e-08
1.57175e-07
2.42088e-07
3.69171e-07
8.2034e-07
1.83262e-06
3.4176e-07
2.67379e-07
8.11801e-07
1.84111e-06
2.51296e-06
6.74802e-06
-9.5109e-06
-2.45667e-06
2.35374e-06
4.67237e-06
5.2331e-06
1.02054e-06
6.39348e-09
1.58221e-07
1.1648e-06
2.625e-06
-1.05481e-07
-4.86957e-07
-8.50896e-08
-4.20864e-08
-2.91452e-08
5.42985e-07
2.30717e-07
5.25513e-08
9.52672e-08
7.01749e-09
-9.70007e-09
2.92477e-08
-5.96367e-08
-2.70814e-08
-5.35643e-08
-9.68835e-08
-5.61745e-08
-2.75565e-08
-1.30583e-07
5.06315e-08
3.6353e-08
1.34903e-07
-1.05783e-07
1.03513e-06
2.37558e-07
-9.81572e-07
-1.37393e-06
1.31694e-06
2.61002e-06
8.94553e-06
-2.15639e-06
-8.15876e-06
2.28006e-06
2.05332e-07
-6.45446e-06
-2.72504e-06
-1.65142e-07
4.1748e-08
2.98582e-08
1.52213e-06
8.64368e-07
-5.92805e-08
-8.24774e-08
-1.16083e-07
-4.52986e-08
1.22458e-07
2.96099e-07
1.10925e-08
-1.92568e-07
-1.34805e-07
-4.14707e-08
1.99276e-08
-6.20468e-08
-2.1987e-08
-9.59385e-10
-3.17366e-08
-2.07978e-08
-4.87644e-09
-7.8918e-08
-6.5195e-08
9.21553e-08
-7.13112e-08
-1.65247e-07
8.84404e-08
1.57187e-07
-7.9341e-07
-2.13066e-06
9.74909e-08
1.74574e-06
8.34944e-06
4.63906e-06
-7.18886e-06
5.93975e-07
-1.35059e-06
-7.34384e-06
-2.38433e-06
1.67304e-07
4.38787e-08
-8.07245e-08
3.5184e-08
5.17839e-07
1.52804e-07
1.55743e-08
-8.01376e-08
-9.03893e-08
-5.72024e-09
1.67092e-07
7.62527e-08
-9.20597e-08
-1.08732e-07
-2.21347e-08
5.97253e-09
3.78255e-09
-4.6863e-09
1.47461e-08
-9.35195e-10
-2.32993e-09
-4.08309e-10
-2.0968e-08
-7.37211e-08
6.83485e-08
-1.82721e-08
-9.48327e-08
-1.27469e-07
2.04982e-08
-1.78267e-07
-1.17651e-06
-1.00885e-06
5.78267e-07
5.43911e-06
7.32397e-06
-4.23623e-06
-6.82247e-07
-5.83483e-07
-4.94054e-06
-1.39457e-06
-1.40133e-07
1.56908e-08
4.6621e-09
-4.16045e-08
7.85367e-09
6.20571e-08
5.41318e-08
-1.69031e-09
-5.57872e-08
-3.23168e-08
2.75463e-08
5.49116e-08
-1.33032e-08
-2.46176e-08
-4.58189e-09
-2.1201e-09
4.29375e-09
-3.27589e-10
3.16393e-09
6.29892e-10
2.03318e-10
3.09676e-10
1.77496e-09
-3.10877e-08
2.03563e-08
3.4623e-08
-1.65506e-08
-1.35926e-07
-5.18902e-09
2.10063e-08
-5.26851e-08
-8.45405e-07
1.76014e-08
2.17453e-06
7.10066e-06
-1.4145e-06
-6.92364e-07
-2.8677e-07
-3.28646e-06
-7.38324e-07
-7.73193e-09
6.09985e-09
2.37964e-09
3.32591e-10
-3.87676e-09
2.49793e-10
8.36044e-09
2.44868e-08
-8.08412e-10
-1.28593e-08
-5.79053e-09
1.38594e-08
3.29344e-09
-3.79912e-09
-1.71278e-09
-1.47763e-09
8.23306e-11
-1.33357e-09
-2.45228e-09
-1.31925e-10
-6.39004e-11
-1.55341e-11
1.21745e-09
-9.06603e-09
-7.85775e-10
2.80173e-08
1.0627e-08
-5.59711e-08
-3.37065e-09
-1.7088e-08
2.07458e-07
-1.69896e-07
-5.28798e-08
3.997e-07
4.47221e-06
1.25801e-07
-3.74489e-07
-4.34072e-07
-1.55795e-06
-2.95413e-07
-7.73284e-09
3.16364e-09
-1.06369e-09
1.43113e-10
5.12537e-11
-1.14832e-11
-3.61463e-10
8.10772e-10
5.86386e-09
6.38564e-10
-2.29687e-09
1.00438e-11
2.40235e-09
-2.19297e-10
-1.42254e-10
-1.64238e-09
-1.44773e-10
-7.26069e-10
-2.86331e-10
-3.24064e-11
3.73676e-12
4.35439e-12
6.61974e-12
-1.45084e-10
5.58818e-11
1.14498e-08
-3.23096e-11
-8.68617e-09
4.88607e-09
-4.28623e-08
5.40859e-08
3.30215e-08
-1.68931e-08
9.92653e-09
1.54027e-06
4.08215e-07
-1.92534e-07
-2.77041e-07
-4.49747e-07
-7.05689e-08
-7.43658e-09
3.4993e-11
-2.56404e-13
-5.75524e-12
4.70623e-13
1.67737e-14
-2.52528e-13
-1.43552e-11
2.79158e-11
-2.6304e-11
-5.59912e-12
-6.18382e-11
6.58142e-11
3.15244e-10
-1.96269e-10
-1.48248e-10
-2.35299e-11
-6.62655e-11
-7.10329e-12
-2.47352e-13
1.32214e-15
-1.17373e-13
-1.48854e-12
1.35433e-11
2.55666e-10
1.02336e-08
9.22864e-10
-5.53001e-09
-7.82648e-10
-1.80279e-08
-2.41758e-09
6.00619e-09
-4.15935e-09
-3.0012e-09
2.61011e-07
2.1855e-07
-8.12778e-08
-6.11046e-08
-1.17142e-07
-3.69271e-08
-2.08813e-10
-1.26192e-13
-1.05711e-14
9.4624e-15
-4.15415e-15
-1.3218e-14
2.20629e-15
5.26785e-14
-1.18965e-13
-6.24845e-15
3.51603e-13
-3.09756e-12
-2.88071e-14
-2.17117e-11
-1.30104e-12
-1.97063e-12
3.65338e-16
-9.33643e-13
-9.02577e-14
-2.40951e-15
-1.33837e-16
1.3101e-15
-6.90194e-15
5.2918e-13
-1.14528e-10
5.28427e-10
7.8413e-10
-3.19566e-10
-1.42418e-11
-1.53451e-10
7.80446e-10
7.74747e-10
-1.8025e-10
-2.0115e-10
2.52937e-08
5.97329e-08
-2.0251e-08
-6.36264e-09
-3.04128e-08
-7.63704e-10
-3.93292e-12
-5.7245e-15
-9.4322e-16
2.04502e-18
1.10916e-16
2.04612e-16
-2.82569e-17
-1.6126e-16
5.10184e-16
-1.60484e-16
8.25813e-16
-2.89747e-15
-2.14106e-16
-3.68568e-14
-3.25689e-15
-1.09277e-14
1.27311e-14
-2.96542e-15
-6.30421e-16
-2.6297e-17
1.92255e-18
-5.82738e-18
5.08866e-17
-2.9025e-17
-1.16121e-13
2.28532e-11
-1.47665e-10
-5.61411e-11
7.089e-13
-1.21162e-12
2.80367e-13
2.33591e-11
5.30049e-11
5.50069e-13
-8.76669e-11
1.55388e-10
-4.64858e-10
-3.86677e-11
-5.78534e-11
-1.35437e-12
-4.54098e-15
-4.34905e-17
1.23159e-18
2.32035e-19
-3.26175e-19
-1.25807e-18
1.22303e-19
5.18644e-19
-1.86975e-18
3.18199e-19
2.12188e-20
1.51575e-19
1.1843e-17
-6.10548e-17
-1.42348e-18
-2.40837e-17
9.74011e-17
-9.7162e-19
-2.08761e-18
-1.68118e-19
-5.44614e-20
-6.05181e-20
-7.63925e-19
4.70621e-18
-1.0337e-16
5.64813e-14
-1.19297e-12
-1.21477e-12
7.04562e-15
-9.76928e-15
-2.93145e-15
3.40977e-14
-3.02431e-13
-1.58677e-15
3.04055e-13
1.04443e-14
-9.62032e-13
-1.12831e-14
-7.42395e-14
-4.76319e-15
-1.17135e-16
-1.54796e-18
-6.39881e-21
1.33539e-20
-4.30537e-20
-1.38464e-19
-1.15329e-19
1.06995e-19
-5.0633e-19
-1.00676e-18
3.63487e-19
1.15156e-19
-1.47435e-21
-7.78859e-19
-5.68347e-20
1.92053e-19
1.31655e-19
-2.28886e-20
-8.4691e-20
-6.22405e-20
7.43e-20
2.11567e-20
-1.88394e-20
2.73013e-20
1.28894e-19
8.05685e-17
-4.91297e-15
-1.75418e-14
-2.12427e-16
-1.9867e-16
-4.64811e-17
-8.59301e-17
7.81508e-16
-3.76438e-17
-1.71148e-15
2.70792e-16
-2.81113e-15
-1.03141e-16
-3.1978e-16
-4.85733e-17
-1.59094e-18
-1.14531e-19
-5.4682e-20
1.33075e-20
-9.93036e-20
7.67346e-20
9.50193e-20
1.08704e-19
-9.53087e-20
-4.66761e-19
-6.99718e-19
2.52585e-19
-2.0499e-20
7.52512e-21
-4.74399e-20
3.576e-20
-9.12767e-20
-1.49335e-19
-9.80967e-20
1.25298e-19
2.02506e-19
-3.83184e-20
-6.44529e-20
1.09489e-19
-1.88055e-19
2.90292e-19
-7.85717e-18
-1.21548e-16
-1.10315e-18
-3.67102e-18
2.52524e-19
5.47396e-19
-1.15166e-18
7.73078e-19
4.51591e-18
1.19743e-18
-9.50635e-18
-2.69866e-19
-4.10906e-18
-5.58103e-19
-3.15348e-20
-1.82489e-20
-1.3417e-19
-7.18666e-20
2.83658e-20
-2.05329e-19
3.63152e-20
1.75046e-20
-2.84884e-19
4.02929e-19
5.70602e-19
1.71209e-19
4.26693e-20
5.54674e-20
-3.3457e-20
6.04701e-21
-4.59504e-20
2.77842e-20
-9.05456e-20
-1.03722e-19
-3.6932e-19
-8.18685e-20
2.82673e-20
5.28454e-19
-4.08874e-19
-4.9918e-20
-2.60358e-19
-5.35771e-19
-1.6442e-19
2.773e-19
-4.46467e-19
2.99119e-19
-6.15643e-20
-1.5731e-20
1.16451e-19
-9.20329e-20
2.09744e-20
-2.88682e-20
-7.68646e-20
4.97081e-20
-1.45322e-20
1.40193e-19
1.37969e-19
1.74201e-19
-4.1361e-19
-1.98603e-19
1.9442e-19
3.82859e-19
-5.19219e-20
4.47071e-20
1.78298e-19
4.96234e-20
3.23748e-20
-4.22075e-20
-6.89113e-20
-1.41419e-20
-5.43069e-22
2.75801e-20
-8.13623e-20
-5.7806e-19
1.25982e-19
2.90532e-20
-2.94161e-19
-2.43167e-19
3.53478e-20
1.19316e-19
1.40124e-19
-6.94508e-20
-2.8378e-20
-9.86896e-20
7.95612e-20
-1.60489e-20
5.74921e-20
9.00488e-20
1.75306e-19
1.73472e-19
-4.08527e-20
4.13011e-21
8.62461e-20
2.52766e-20
2.43051e-20
-1.45954e-19
3.08718e-20
5.43378e-19
2.12706e-19
2.42589e-20
-3.5748e-19
-6.00181e-19
1.36777e-18
-3.44413e-20
3.3988e-19
3.52463e-20
1.28881e-19
5.91699e-20
-1.36663e-19
7.56871e-20
-3.57726e-20
-7.60168e-21
4.05488e-20
-1.75987e-19
1.20823e-19
1.20309e-19
1.23324e-19
2.96475e-19
6.42129e-19
-3.10234e-19
3.52173e-19
-5.44214e-20
8.43468e-20
-3.53432e-20
-4.85547e-20
7.46547e-20
-1.57339e-20
4.90782e-20
1.32121e-19
6.54304e-20
-1.14477e-19
-5.29516e-20
6.51521e-20
-1.36135e-19
-1.20495e-20
7.58573e-20
-2.31638e-19
-1.56053e-19
2.97633e-19
5.44056e-21
-1.8025e-19
5.18526e-19
8.74652e-19
2.50111e-19
7.92163e-20
-2.13586e-19
9.07229e-20
-1.88135e-20
3.44599e-21
-4.62439e-20
-6.61524e-20
-1.51786e-20
1.65165e-19
6.45921e-19
4.18455e-20
4.60926e-20
2.67607e-19
6.56865e-19
-2.97417e-19
-6.74142e-20
6.26025e-20
1.75006e-20
4.66014e-21
-3.15291e-20
4.08896e-22
-6.5369e-21
2.23316e-20
-1.01647e-19
9.04702e-21
1.77005e-20
1.15442e-19
3.41812e-21
-6.78007e-20
4.70109e-20
-6.96165e-20
-8.55733e-20
-4.29839e-20
-2.46902e-19
2.63546e-20
-5.21141e-20
-5.79644e-20
-1.21919e-19
-6.94288e-19
5.96664e-20
-9.11237e-22
1.41512e-19
-4.31826e-19
-6.50349e-21
3.05346e-20
-1.13977e-20
-3.66212e-21
-4.60547e-20
9.32971e-21
-1.68985e-19
1.14834e-20
6.3449e-20
-2.08925e-20
-7.64402e-19
-2.72925e-19
-3.98059e-20
-2.37762e-20
2.97652e-20
1.89666e-19
3.8188e-21
-4.42776e-20
1.18119e-20
-9.59649e-22
2.43699e-20
5.93941e-21
-5.54845e-20
8.60831e-20
6.40017e-20
3.17917e-20
1.13633e-19
-1.07541e-19
-3.53973e-19
-1.87828e-19
-3.10897e-20
1.24841e-20
-6.15321e-21
-1.67807e-19
-3.57915e-19
-4.14424e-19
-1.09897e-19
-8.43585e-21
-4.27783e-20
-7.35413e-20
4.11508e-20
-3.39949e-21
-6.37691e-21
-1.13766e-20
-3.49297e-20
1.03499e-20
7.23886e-20
-1.13651e-19
-8.40148e-20
1.62337e-19
-4.54045e-20
2.93719e-19
-3.6232e-20
1.1364e-19
-1.41118e-19
8.33334e-21
2.37689e-20
1.84548e-20
2.34605e-20
-2.22104e-20
-5.13681e-20
6.82492e-21
1.06086e-19
3.05987e-19
2.46563e-19
-3.31777e-20
-2.76723e-20
-5.38798e-21
4.70743e-20
7.49695e-20
6.15211e-20
3.6983e-20
-4.46713e-20
-2.5789e-19
2.6498e-20
6.82584e-20
2.76777e-21
3.10481e-20
3.86417e-20
-5.25629e-20
-9.94477e-20
1.18465e-20
-1.62551e-20
-6.10789e-21
-1.71254e-21
2.0653e-21
-7.86422e-21
1.41655e-19
-1.78795e-20
-3.17244e-19
9.2017e-21
2.5571e-19
-1.42134e-19
-2.00087e-20
1.26554e-20
-5.09485e-21
-7.39851e-20
3.64098e-20
-1.48683e-20
6.49046e-21
-7.29056e-20
-1.05779e-20
-4.26437e-20
1.74182e-19
1.86644e-19
-7.32075e-20
8.01635e-20
9.62436e-20
-5.673e-20
2.41543e-19
4.15841e-20
9.05247e-20
-2.20955e-20
-3.22892e-19
4.13012e-20
4.64749e-20
2.92026e-20
2.26028e-20
-1.78656e-20
-9.87612e-20
9.79873e-20
-3.1665e-07
-5.60171e-07
-2.31634e-07
-1.79371e-07
-8.99153e-07
-1.04762e-06
-6.41918e-07
-5.94492e-07
-3.15457e-07
-1.81757e-07
-1.21582e-08
-5.27735e-07
-2.58415e-06
-4.68813e-06
-6.71898e-06
-1.04551e-05
-1.36454e-05
-1.16754e-05
-4.23592e-06
1.24605e-06
1.0107e-06
-3.2079e-07
-1.73405e-06
-2.06564e-06
-1.99588e-06
-2.10827e-06
-1.38629e-06
-1.18281e-06
7.66832e-07
-8.88046e-08
-5.11514e-06
-6.34821e-06
-3.88044e-06
-1.17466e-06
-1.8296e-06
-5.53438e-07
-2.09044e-06
2.10628e-07
-4.80653e-08
-8.65229e-08
4.3351e-06
2.76683e-06
7.83704e-07
1.9771e-06
2.38517e-06
-1.66437e-06
-3.36691e-06
-2.29454e-06
-1.16635e-06
1.06816e-06
6.06983e-06
9.9167e-06
7.39846e-06
5.13166e-06
6.16994e-06
3.70586e-06
-4.66198e-06
-1.54542e-05
-2.47433e-05
-2.36017e-05
-6.51423e-06
6.31568e-06
-5.64282e-07
-1.13178e-05
-2.14051e-05
-2.90962e-05
-2.29621e-05
-3.89645e-06
1.72889e-05
2.26591e-05
7.10091e-06
-1.43719e-05
-2.99e-05
-2.49207e-05
-9.26922e-06
-6.40767e-06
-9.90572e-07
5.96051e-06
2.77869e-06
3.91052e-06
4.51143e-06
4.80684e-06
1.64344e-06
1.92257e-06
3.9827e-06
2.10888e-06
-1.61759e-06
-2.29157e-06
-1.32368e-06
-7.16713e-08
3.26759e-06
7.87739e-06
9.34497e-06
1.12032e-05
1.6026e-05
2.05196e-05
2.04637e-05
1.22232e-05
-7.37697e-06
-2.16651e-05
-9.61364e-06
1.12407e-05
6.13307e-06
-6.31613e-06
-1.21038e-05
-1.70012e-05
-1.58439e-05
-5.28708e-06
6.23095e-06
1.25125e-05
1.11511e-05
1.09077e-06
-1.17747e-05
-1.65029e-05
-7.85499e-06
-1.34482e-06
2.06314e-06
-8.15073e-07
-3.52497e-07
1.48303e-06
2.8168e-06
3.42908e-06
8.76755e-07
5.19858e-07
3.11081e-06
4.4185e-06
1.96105e-06
-1.06674e-08
-8.7937e-08
1.54753e-07
1.03609e-06
1.48846e-06
2.83611e-06
6.42699e-06
1.20339e-05
1.85853e-05
2.31278e-05
2.24229e-05
1.08734e-05
-1.36313e-06
1.13771e-06
4.40953e-06
9.61954e-07
-3.18807e-06
4.68736e-07
1.1031e-06
-2.11395e-06
-1.12481e-06
-7.7427e-07
6.47731e-07
6.20763e-06
7.61846e-06
2.89109e-06
-1.08227e-06
7.99576e-07
9.17307e-07
-1.47881e-06
-1.203e-06
-1.00178e-07
9.79481e-07
9.25189e-07
1.20873e-06
3.69872e-07
-8.52641e-10
9.23297e-07
1.53666e-06
9.92903e-07
8.95817e-08
1.39038e-07
3.54108e-08
7.99812e-07
5.21213e-07
-2.85904e-07
1.00596e-06
3.33602e-06
4.60508e-06
4.26324e-06
4.42852e-06
3.28888e-06
3.32068e-07
4.43196e-06
-4.36831e-06
-2.30772e-06
3.69491e-06
6.83942e-06
5.32149e-06
5.58809e-07
-3.77755e-08
-3.56268e-07
-5.05494e-07
1.40938e-06
2.08087e-06
8.31608e-07
1.11772e-07
1.81211e-06
1.89221e-06
-5.63684e-07
-4.46699e-07
3.87778e-08
7.33623e-08
-6.45638e-08
-2.20332e-07
-1.74547e-07
-3.55883e-07
-4.43988e-07
-2.52571e-07
1.79103e-07
1.11967e-07
1.86933e-07
-3.48353e-07
1.21943e-08
6.44637e-07
-7.91021e-07
-1.34521e-06
-1.73739e-07
1.63569e-07
-7.4915e-07
-1.18815e-06
7.32891e-07
-1.96039e-07
6.97731e-06
-7.37855e-06
-8.30898e-06
6.89127e-06
6.75815e-06
3.37745e-06
1.2006e-06
6.09008e-08
2.03344e-07
-3.07842e-08
1.715e-07
1.38688e-07
7.25671e-08
2.42608e-08
6.49707e-07
1.28259e-06
-3.9569e-07
3.11618e-08
2.13407e-07
-3.42864e-07
-4.39582e-07
-6.77598e-07
-6.03242e-07
-3.7809e-07
-7.81717e-07
-6.6965e-07
-1.67626e-07
1.00046e-07
2.345e-07
5.68465e-08
-6.82076e-07
2.95888e-07
-2.91537e-07
-1.49068e-06
-1.08499e-06
-7.52619e-07
-9.23287e-07
-1.60575e-06
-5.16845e-07
-2.72632e-07
7.41293e-06
-3.51855e-07
-1.01852e-05
5.44051e-06
3.48762e-06
1.18391e-07
4.72642e-07
3.64522e-08
1.39851e-07
1.03932e-07
1.91649e-08
-8.29877e-08
-2.55574e-08
-6.40035e-08
2.98295e-08
8.64268e-07
-1.557e-08
-1.39344e-07
2.07197e-07
-2.83601e-07
-3.1412e-07
-6.03594e-07
-6.72618e-07
-1.86045e-07
-5.1651e-07
-4.16283e-07
-1.39212e-07
3.76559e-08
1.81983e-07
3.57666e-07
-4.07823e-07
-2.22272e-07
-9.45228e-08
-9.54387e-07
-9.60587e-07
-6.54728e-07
-1.65646e-07
-5.79306e-07
-6.70354e-07
1.47647e-07
5.33032e-06
6.5848e-06
-6.32054e-06
2.48854e-06
1.1711e-06
-9.376e-07
5.76868e-09
1.47196e-08
1.14859e-08
2.80846e-08
9.49705e-09
-1.34804e-10
-2.41476e-08
-1.46879e-08
-1.66113e-07
2.96694e-07
4.70333e-07
-1.96973e-07
7.57048e-08
-1.38318e-07
-1.096e-07
-2.99533e-07
-4.30819e-07
-5.36355e-08
-2.42855e-07
-1.74064e-07
-4.87489e-08
1.31598e-08
9.95363e-08
2.52361e-07
4.42752e-08
-2.93602e-07
-9.61021e-08
-4.80557e-07
-6.80615e-07
-5.18176e-07
1.04592e-07
1.11054e-07
-3.02407e-07
2.03879e-07
3.22029e-06
7.8532e-06
-1.89276e-06
7.3585e-07
3.43737e-07
-8.06713e-07
-7.66793e-08
1.00008e-08
4.37487e-09
2.80925e-09
-1.97936e-10
5.59796e-10
-6.74905e-09
3.90668e-08
-7.93668e-08
-4.58549e-08
2.9788e-07
8.31014e-10
-4.78034e-09
-6.66653e-08
-3.20801e-08
-7.90865e-08
-1.50462e-07
-4.57922e-09
-9.52616e-08
-6.55822e-08
-1.43208e-08
2.32946e-09
3.57084e-08
1.25542e-07
9.64388e-08
-1.13635e-07
-8.87618e-08
-1.50547e-07
-3.57464e-07
-3.63244e-07
-2.2303e-08
3.26073e-07
-1.05676e-08
3.91717e-08
1.60544e-06
5.99598e-06
5.82097e-08
9.26909e-08
-6.08596e-08
-5.26685e-07
-6.52078e-08
2.50463e-09
5.64475e-09
2.56471e-09
4.12077e-10
-6.86449e-10
-6.36206e-10
6.99432e-09
8.49952e-09
-6.82689e-08
7.11148e-08
5.37323e-08
-1.42557e-08
-1.56502e-08
-4.95196e-09
-4.61567e-09
-2.07464e-08
-3.0276e-09
-4.32391e-08
-2.06026e-08
-2.44913e-09
1.24053e-09
-4.36401e-10
5.60483e-08
4.7651e-08
-3.14938e-08
-2.68922e-08
-3.35669e-08
-1.23373e-07
-1.45169e-07
-7.88373e-08
1.64214e-07
6.18404e-08
-1.16912e-08
4.31341e-07
3.33176e-06
3.6921e-07
-6.62017e-08
-1.54134e-07
-2.75153e-07
-4.86372e-08
9.72224e-11
2.10578e-09
1.52653e-10
5.59615e-11
9.35764e-11
9.46863e-11
-6.83012e-10
7.53563e-09
-1.59408e-08
-5.69845e-11
2.28792e-08
4.01726e-10
-6.39754e-10
-1.86297e-09
3.60502e-09
6.82013e-09
-6.37861e-09
-1.55986e-08
-3.72192e-09
-1.80067e-09
-8.01855e-11
-6.8916e-09
2.22375e-08
2.51931e-08
-1.58254e-09
-7.14424e-09
-8.9335e-09
-2.75328e-08
-3.17193e-08
-4.0927e-08
4.15625e-09
2.30053e-08
-5.40558e-09
1.64696e-08
1.1996e-06
2.12931e-07
-4.02345e-08
-7.46778e-08
-1.0499e-07
-2.27087e-08
8.11485e-11
1.74191e-11
9.75248e-14
-1.27165e-12
9.32385e-12
-9.1426e-13
-7.02539e-11
7.5685e-10
-6.76665e-11
-7.33027e-09
1.00636e-09
1.75672e-09
2.58268e-09
-8.85994e-11
-6.89847e-10
4.55931e-10
-2.44655e-09
-1.95081e-09
-3.54285e-10
-2.34896e-11
-6.03111e-12
-2.03736e-10
3.20662e-10
1.16621e-08
8.45939e-10
-2.10299e-10
-8.77815e-10
-9.20646e-09
-1.02386e-09
-3.26777e-09
-2.23688e-09
1.51565e-08
-5.01633e-11
-4.0338e-10
2.9023e-07
5.7275e-08
-7.12513e-09
-2.93094e-08
-4.11451e-08
-1.2563e-09
-3.0138e-12
2.37033e-13
5.21928e-15
2.04002e-14
-1.16073e-13
-1.27236e-15
8.35028e-13
-8.58891e-12
4.69804e-11
3.08211e-12
1.07224e-11
4.57094e-11
2.44429e-10
-2.10747e-10
-1.53118e-10
-4.54309e-11
-2.72785e-10
-3.24741e-11
-1.99519e-12
-1.94256e-13
1.21352e-13
-1.60744e-12
-1.77084e-11
1.06212e-11
-4.03293e-10
-4.79876e-10
-3.16928e-11
-8.51186e-11
-6.02885e-11
1.42808e-11
-1.54171e-10
-3.25259e-11
-6.08066e-11
6.56488e-10
7.87933e-08
4.47847e-09
-2.98384e-10
-1.39516e-08
-2.1406e-09
-4.0886e-11
-2.3269e-13
7.3685e-16
-1.72777e-16
-2.33496e-16
1.10584e-15
5.47448e-16
-5.27157e-15
5.92622e-14
-1.66646e-13
6.26558e-15
-2.10867e-14
5.41139e-14
-1.14677e-11
-1.31114e-12
-1.78532e-12
-8.66069e-13
-3.50162e-12
-3.32688e-13
-7.71045e-15
5.98183e-16
-1.08257e-15
2.07621e-15
1.67926e-14
3.87502e-14
-1.46478e-12
-7.9346e-12
-3.6708e-13
-7.66685e-13
-2.39005e-13
-1.45013e-13
9.99455e-13
-1.43317e-13
7.23698e-13
-1.70598e-10
1.69655e-10
-6.21205e-10
-4.75474e-11
-1.71724e-10
-1.71249e-11
-3.23273e-13
-1.76048e-15
5.10137e-17
8.66372e-19
7.04251e-19
-5.1485e-18
-1.1455e-17
1.48763e-17
-2.44062e-16
4.2364e-16
1.61892e-16
-4.68954e-16
-1.29268e-16
-1.74269e-14
-2.9072e-15
6.41628e-16
-1.89037e-14
-2.74448e-14
-1.73128e-15
-1.8717e-17
-4.82008e-19
1.07926e-20
-1.41702e-17
-3.44687e-18
-9.341e-17
1.37533e-15
-8.03267e-14
-7.82541e-15
-6.28764e-15
-1.2931e-15
3.91809e-16
-4.22112e-15
4.13643e-15
-1.49176e-15
6.50598e-13
6.53233e-14
-1.60801e-12
-4.90542e-13
-4.3417e-13
-8.49973e-14
-3.55169e-15
-5.67013e-17
-5.5099e-19
-1.46513e-20
-1.92157e-19
1.18675e-19
-1.01078e-19
-6.81127e-20
7.89234e-19
3.31665e-19
2.52524e-18
-5.7955e-18
5.80644e-18
-2.15291e-17
-4.92732e-18
2.61025e-17
-1.66195e-16
-1.05145e-16
-4.88737e-18
9.15024e-20
1.91259e-20
-1.07121e-20
-1.6867e-21
-3.60606e-20
1.49478e-19
2.70135e-17
-5.13407e-16
-1.28686e-16
-3.40057e-17
-8.64127e-18
-7.28932e-19
8.59332e-18
-2.97379e-17
1.84205e-18
-1.42976e-15
1.55389e-16
-3.63305e-15
-3.33908e-15
-2.54359e-15
-9.59972e-16
-6.97716e-17
-2.22605e-18
3.00767e-20
1.73359e-19
-1.42531e-19
-1.96994e-19
3.08733e-19
-5.15124e-19
-3.86102e-19
8.03687e-19
4.50962e-19
2.131e-19
2.05891e-19
-4.3891e-19
-5.59813e-20
2.1391e-21
-5.29503e-19
-4.39501e-19
3.55973e-19
6.11876e-20
-1.0845e-19
-1.61293e-20
4.79296e-20
1.89424e-21
-9.1431e-19
1.11954e-18
-2.0792e-18
-2.15649e-18
-1.68255e-19
3.06873e-19
-1.94016e-19
-2.08317e-19
1.35646e-19
3.39998e-20
1.14309e-18
1.33346e-18
-4.96079e-18
-3.53784e-18
-4.76184e-17
-1.44422e-17
-9.57837e-19
-2.08729e-19
2.64355e-19
1.57892e-20
8.26198e-20
-2.47219e-19
-1.21223e-19
3.70773e-19
2.64122e-19
2.87873e-19
4.40499e-19
1.36761e-19
-5.13156e-20
2.42169e-20
1.64242e-20
-2.10732e-20
-1.71247e-19
-1.15936e-19
-2.55835e-19
-3.55019e-19
-5.68695e-20
-3.26928e-20
9.93964e-20
-1.18768e-19
-6.10024e-19
-6.72184e-19
4.91329e-19
-9.59466e-20
2.1977e-20
-1.23952e-19
1.38901e-19
1.84583e-20
-4.37343e-20
5.69757e-20
3.74069e-20
-1.10205e-19
-1.99736e-20
-1.17222e-19
-5.6413e-19
2.33332e-19
9.20639e-20
-9.55049e-20
-1.23141e-20
-3.44313e-19
1.99709e-19
2.27443e-19
9.25284e-19
-3.29756e-19
-1.39488e-18
-3.78214e-19
3.40537e-19
9.48591e-20
8.77893e-21
-4.35759e-20
-5.52809e-20
5.43871e-20
1.63929e-19
3.76658e-21
1.02832e-20
-5.46827e-19
6.83984e-20
-4.60389e-20
-1.63763e-19
3.52744e-19
-3.31304e-19
-5.14719e-19
1.13207e-19
1.36493e-20
9.75981e-20
-1.76252e-19
-1.13423e-19
-5.57647e-21
-1.39145e-20
4.92617e-21
2.52066e-20
-5.1608e-20
2.63856e-20
1.02717e-20
-5.67914e-20
3.71914e-20
4.39988e-20
-1.0385e-19
2.0752e-19
-2.87382e-19
-3.08329e-19
-4.71621e-20
-5.1269e-19
2.30946e-18
1.62668e-18
-9.94702e-19
-1.51608e-19
2.03852e-19
7.1433e-20
-1.19865e-19
-6.87047e-20
-4.10907e-20
-4.22254e-21
4.49515e-22
7.18818e-20
1.04306e-19
1.37313e-19
1.13681e-19
-4.18986e-19
-6.17568e-19
7.43378e-19
-4.25981e-19
-6.8138e-20
-1.33362e-19
3.63085e-20
6.67163e-20
-2.23742e-21
-1.94072e-20
3.69304e-20
-8.54037e-21
-2.87115e-20
1.44826e-20
-2.656e-21
-1.28065e-20
-2.15187e-20
1.99856e-19
3.9582e-19
4.01082e-19
4.97334e-20
1.78781e-19
-2.15302e-19
-7.82259e-21
1.12216e-19
2.51188e-19
6.87479e-19
-7.056e-19
-2.63119e-20
-2.64719e-20
8.59113e-19
3.8425e-19
2.0203e-20
4.38466e-20
-4.77503e-20
-8.85097e-21
-1.05353e-19
4.32743e-19
1.61297e-19
5.12682e-20
3.01153e-19
1.82745e-19
2.64796e-20
2.94632e-19
-2.61258e-19
-5.81853e-20
-1.0088e-19
8.17189e-20
1.17412e-19
-4.43944e-20
-5.09924e-20
7.90759e-21
-4.57488e-20
9.51946e-20
-2.63633e-20
3.5855e-20
5.5769e-20
-2.52104e-19
1.10984e-19
3.9284e-19
1.73841e-19
4.60189e-20
1.49543e-19
5.56891e-20
-3.86094e-21
2.70101e-19
4.62228e-19
2.9415e-19
1.09925e-19
-6.05103e-20
-2.77793e-19
-2.43953e-19
-7.9189e-20
-4.90998e-21
2.02587e-20
2.87536e-21
-1.7709e-20
1.19891e-19
-1.75526e-19
9.54687e-21
-1.14129e-20
5.73446e-19
1.10399e-19
1.09765e-19
-1.59444e-19
7.54944e-20
1.50943e-21
1.34829e-19
1.93924e-20
-1.89219e-20
-6.68899e-21
-2.31044e-20
4.67322e-20
-6.37072e-20
2.73891e-20
-4.51303e-20
5.96563e-20
-1.76761e-19
-5.0152e-19
-2.6874e-19
1.78495e-19
-2.36077e-20
-4.42478e-21
-1.2594e-19
1.47811e-19
-5.86211e-19
-2.47947e-19
1.25506e-20
-7.93479e-20
1.83609e-19
-1.78445e-19
1.55704e-21
-5.49801e-20
1.79273e-21
1.73784e-20
-7.59377e-21
-1.69561e-20
-6.32908e-20
1.69398e-19
1.07172e-19
-6.29755e-20
-3.40395e-19
2.33882e-19
7.12826e-20
-1.50387e-19
9.9155e-20
-2.97053e-20
8.5479e-21
9.45153e-20
-5.20943e-20
2.28864e-21
-1.75271e-20
1.53912e-20
-5.31517e-20
-6.77496e-20
1.49154e-20
9.11676e-22
3.85363e-20
-5.93063e-20
-1.29904e-19
8.14793e-20
2.18278e-19
-1.52025e-20
-1.80772e-19
-6.01364e-19
-4.04443e-19
9.08864e-20
3.14063e-20
6.41042e-21
-1.27161e-19
5.8266e-20
-6.05949e-20
8.41991e-20
-3.28556e-20
-1.64747e-20
2.26821e-20
-4.05088e-21
-2.92309e-20
-1.70795e-20
1.25382e-19
9.79236e-20
1.23168e-19
-1.47987e-19
3.29485e-20
-4.72219e-21
3.39481e-21
-7.11865e-20
5.52898e-20
-1.88234e-21
-1.32103e-20
3.97326e-21
6.43674e-21
6.50866e-20
-4.30314e-20
-2.10761e-19
9.88134e-20
-8.06585e-20
-9.53483e-21
4.16721e-21
-2.87767e-20
-1.32874e-19
6.71898e-20
3.88571e-20
-5.09087e-20
-1.92949e-19
-4.89599e-19
5.00694e-19
-3.64893e-21
3.02039e-20
-1.41145e-19
-1.82871e-19
2.65227e-19
-3.1791e-06
-2.73533e-06
4.17911e-07
-3.83924e-07
-8.14576e-07
-4.98885e-07
-2.26461e-07
-1.75368e-07
-1.69796e-07
1.29473e-07
-5.5147e-07
-1.35428e-06
-1.54268e-06
-1.28902e-06
-2.96438e-06
-6.07476e-06
-8.8818e-06
-1.19746e-05
-1.44573e-05
-5.69845e-06
-7.643e-07
-3.92432e-06
-1.72259e-06
-2.17566e-06
-4.57263e-06
-5.11592e-06
-2.60999e-06
4.9553e-07
9.77928e-07
-2.33128e-06
-5.86567e-06
-5.67665e-06
-3.03612e-06
-1.25237e-06
-7.48775e-07
-4.94975e-07
-2.34928e-06
-2.16143e-06
-8.06377e-07
-3.28336e-07
9.10859e-06
9.02277e-06
6.8092e-06
3.15393e-06
2.869e-08
-1.81789e-06
-2.10499e-06
-1.66161e-06
4.03983e-07
3.30339e-06
4.0826e-06
1.57822e-06
-6.74026e-07
1.99929e-06
2.66249e-06
-2.65145e-06
-5.9576e-06
-6.15166e-06
-2.53589e-05
-4.96935e-05
-2.90397e-05
-3.21814e-06
-2.90829e-06
-7.88662e-06
-1.18179e-05
-7.95628e-06
2.9989e-06
1.3733e-05
1.93713e-05
1.52498e-05
2.84854e-07
-1.72658e-05
-2.2159e-05
-1.39867e-05
-5.68863e-06
-3.97491e-06
-8.65852e-07
2.04461e-06
3.0809e-06
4.97295e-06
1.24014e-05
1.28726e-05
5.05204e-06
2.52099e-06
2.7559e-07
-1.68759e-06
-1.36329e-06
-1.10917e-06
-4.40332e-07
1.79446e-06
4.18085e-06
4.17221e-06
3.79647e-06
5.85066e-06
8.6519e-06
9.08221e-06
9.03148e-06
1.25442e-05
8.58796e-06
-2.12084e-05
-3.03335e-05
-4.32992e-06
6.84756e-06
-3.45442e-06
-9.58313e-06
-6.57498e-06
2.67248e-06
8.56609e-06
1.16388e-05
1.39405e-05
9.92596e-06
-2.47205e-06
-1.13378e-05
-9.48143e-06
-3.75277e-06
-1.42794e-06
-5.17008e-07
1.03805e-06
2.37457e-06
3.44823e-06
7.83911e-06
1.10806e-05
2.23681e-06
5.84475e-07
6.43122e-07
-1.88376e-07
-2.32201e-07
-9.47666e-08
1.71733e-08
3.74724e-07
6.95072e-07
1.05384e-06
1.91803e-06
3.7935e-06
7.16462e-06
1.04182e-05
1.1992e-05
1.437e-05
1.79552e-05
6.29606e-06
-6.51286e-06
3.22442e-06
6.40369e-06
-1.23953e-06
-1.85845e-06
-3.57448e-07
1.98998e-06
1.48025e-06
1.25779e-06
6.24878e-06
1.03975e-05
6.70235e-06
6.39515e-07
-8.24794e-07
-1.58716e-09
-1.0353e-06
-1.65647e-06
4.72443e-07
1.18745e-06
2.18739e-06
1.96382e-06
4.57439e-06
1.60851e-06
2.89802e-08
5.58591e-07
4.51614e-07
2.24162e-07
1.14229e-07
-4.9307e-08
5.07092e-08
1.23213e-08
-1.22723e-07
4.28392e-07
1.49743e-06
2.72116e-06
3.44755e-06
3.10302e-06
2.7739e-06
4.14959e-06
2.25511e-06
-1.27036e-06
2.59102e-08
2.98998e-06
-4.79436e-07
2.20848e-06
1.05861e-06
4.41278e-07
7.06123e-08
2.85175e-07
2.35673e-06
3.78456e-06
2.59782e-06
4.06795e-07
1.15612e-07
7.37873e-07
-2.80213e-08
-3.89247e-07
1.31354e-07
5.67589e-07
5.8867e-07
3.53621e-07
-3.49212e-07
1.18491e-06
-2.40011e-07
2.21746e-08
3.46788e-07
2.75905e-07
1.31029e-07
5.85177e-08
-2.80247e-08
5.72674e-09
-4.19365e-07
-4.78557e-07
-1.1045e-07
7.69041e-08
9.92943e-08
1.13967e-07
-2.81573e-07
-1.72156e-07
4.21556e-07
1.91633e-07
-5.6361e-07
-5.14901e-07
-9.39483e-07
4.616e-06
2.16233e-06
2.36223e-07
-1.2723e-07
5.36426e-08
3.31109e-07
1.84976e-07
3.6095e-07
1.93024e-07
8.15537e-08
3.56706e-07
-2.30827e-07
-9.02524e-08
4.47255e-07
7.58281e-09
2.03708e-08
4.13387e-07
-1.92186e-06
1.53226e-07
-1.36313e-07
-3.24858e-07
4.85068e-08
1.76986e-07
2.97282e-08
8.70082e-08
-4.98324e-08
2.66336e-08
-2.05181e-07
-6.10836e-07
-8.72829e-07
-1.12489e-06
-1.0087e-06
-4.64688e-07
-2.59318e-07
-4.97661e-07
-1.13943e-07
4.60178e-07
2.56438e-06
-4.804e-07
-1.95095e-06
3.43539e-06
1.57407e-06
5.55525e-08
-2.03863e-07
-6.40758e-08
-1.07337e-07
-4.353e-07
-1.91071e-07
3.15736e-08
-1.64103e-09
2.00948e-07
-4.06394e-08
-4.07079e-07
2.89722e-07
-2.00648e-07
-6.84726e-09
1.35479e-07
-1.3455e-06
-7.2508e-07
4.08223e-08
-3.08066e-07
-1.39537e-07
6.11278e-08
-5.63427e-09
-3.00812e-08
-1.74083e-08
-6.07681e-08
3.17805e-08
-2.91812e-07
-8.00664e-07
-1.0987e-06
-7.669e-07
-3.39324e-07
-1.45134e-07
7.12948e-09
-2.06412e-07
3.15785e-07
2.74987e-06
2.2061e-06
-1.72085e-06
1.43931e-06
7.1776e-07
-5.56785e-08
-2.07078e-07
-7.75032e-08
-2.43228e-08
-8.81409e-08
-5.31992e-08
-3.89779e-09
1.96546e-08
8.36057e-08
1.74813e-07
-1.80568e-07
-1.65006e-08
-1.48762e-07
1.66445e-08
-5.6932e-08
-5.56396e-07
-7.01275e-07
5.51528e-08
-1.47637e-07
-1.08524e-07
5.21029e-09
8.86724e-09
-4.60018e-08
-1.64879e-08
-3.35641e-08
4.33598e-08
-5.51129e-10
-3.4127e-07
-4.64141e-07
-2.70903e-07
-1.22774e-07
-1.45464e-07
9.5935e-09
-3.90761e-08
1.4755e-07
1.49043e-06
2.53329e-06
-7.64228e-07
4.58641e-07