/*--------------------------------*- C++ -*----------------------------------*\
| =========                 |                                                 |
| \\      /  F ield         | OpenFOAM: The Open Source CFD Toolbox           |
|  \\    /   O peration     | Version:  5.0                                   |
|   \\  /    A nd           | Web:      www.OpenFOAM.org                      |
|    \\/     M anipulation  |                                                 |
\*---------------------------------------------------------------------------*/
FoamFile
{
    version     2.0;
    format      ascii;
    class       volScalarField;
    location    "50.4676134421789371";
    object      TDwT;
}
// * * * * * * * * * * * * * * * * * * * * * * * * * * * * * * * * * * * * * //

dimensions      [0 1 -2 1 0 0 0];

internalField   nonuniform List<scalar> 
60000
(
-2.50164e-05
-1.58124e-05
-6.60541e-06
-7.34946e-06
-1.01123e-05
-3.41487e-06
1.8438e-06
7.81153e-07
-9.42114e-07
-6.34047e-06
-1.23706e-05
-8.57631e-06
8.45713e-07
-1.51786e-06
-5.63811e-06
-1.14276e-05
-2.52232e-05
-2.7001e-05
-1.22371e-05
-1.60539e-05
-4.27598e-05
-5.50645e-05
-3.46646e-05
2.32172e-05
5.93291e-05
4.11198e-05
1.43519e-05
9.32006e-06
6.43863e-06
1.30623e-05
1.86847e-05
1.51038e-05
2.5173e-05
3.38848e-05
3.46567e-05
6.47595e-06
-1.83806e-06
-3.66693e-06
-1.73785e-05
-2.65225e-05
3.61565e-05
1.82589e-05
-5.51796e-06
-1.14704e-05
-2.31393e-06
8.54368e-06
2.84045e-06
-1.08773e-05
-2.05502e-05
-2.32095e-06
4.78009e-05
6.70889e-05
3.58658e-05
8.3106e-06
1.06132e-05
1.30783e-05
3.66251e-06
3.42108e-06
-6.71867e-07
-0.000127858
-0.000256995
-0.000184204
-9.08118e-05
-4.42279e-05
6.91069e-06
3.40872e-05
2.71e-06
-4.12903e-06
5.24188e-05
8.70432e-05
8.31387e-05
6.88608e-05
4.41517e-05
4.10272e-06
-3.96144e-05
-3.69626e-05
-1.92186e-05
-3.34297e-05
-2.48327e-05
1.76638e-05
4.21275e-05
3.33289e-05
7.40348e-06
2.64069e-07
5.37679e-06
5.00353e-06
1.91993e-06
-4.91309e-06
-1.55244e-05
-6.87697e-06
2.76732e-05
4.926e-05
3.08436e-05
1.10397e-05
1.36224e-05
2.91043e-05
4.11518e-05
3.18749e-05
4.89819e-06
-2.97018e-05
-8.80478e-05
-4.69727e-05
-4.83978e-06
-7.81192e-05
-9.10594e-05
-2.19754e-05
1.10549e-05
1.02446e-07
5.64363e-06
8.43357e-06
6.88668e-06
8.27698e-06
-4.70848e-06
-2.24383e-05
-3.92973e-05
-1.91615e-05
-5.92358e-06
-1.28087e-05
-5.10065e-06
2.20495e-05
2.03775e-05
1.72707e-05
2.91123e-06
6.05416e-07
4.29765e-06
4.11612e-06
8.77259e-07
-6.64551e-07
-2.61987e-06
-4.17947e-07
1.33061e-05
2.46007e-05
1.37692e-05
1.25632e-06
5.04236e-06
1.85256e-05
3.20282e-05
3.07238e-05
4.78468e-06
-7.72704e-06
-7.21438e-06
3.72616e-05
3.00301e-05
-9.60264e-05
-0.000114883
-4.18676e-05
8.15064e-06
7.0427e-06
-9.2051e-07
-2.18336e-06
-4.40646e-06
-1.7515e-07
-9.38651e-07
-9.13792e-06
-1.87184e-05
-1.1169e-05
2.87601e-06
-8.89524e-07
-5.46667e-06
6.35671e-06
5.1806e-06
6.18748e-06
1.75394e-06
3.53437e-07
1.06817e-06
1.18157e-06
3.36307e-07
-7.47274e-07
-6.3779e-07
-8.45894e-07
1.90202e-06
7.51394e-06
7.48467e-06
2.0641e-06
1.44894e-06
4.49418e-06
8.35307e-06
8.93153e-06
-1.67957e-06
-9.47579e-07
6.90744e-06
1.50808e-06
1.60144e-05
-4.82726e-05
-3.86843e-05
-1.0433e-05
2.18476e-06
1.29943e-06
-4.82572e-06
-3.52849e-06
-1.11329e-06
8.69421e-07
1.24014e-06
-1.09441e-06
-5.88127e-06
-6.31019e-06
-3.62068e-07
7.71161e-07
-9.73963e-07
1.10834e-07
8.25874e-07
1.01143e-06
4.71871e-07
7.95456e-08
7.18004e-08
2.05341e-07
1.31015e-07
-3.45382e-07
-9.01315e-07
-4.06765e-07
-1.12344e-07
1.36545e-06
3.47672e-06
2.5845e-06
-3.31263e-07
-2.08912e-06
-1.44303e-06
3.34798e-06
-1.23586e-06
-8.0499e-06
8.38236e-06
-2.18066e-05
-5.22065e-07
-9.86108e-06
4.69302e-06
1.02472e-06
-1.25616e-06
-1.487e-07
-2.28125e-06
-2.88497e-06
-6.90643e-07
2.73612e-07
6.61671e-07
6.86127e-07
-3.0606e-07
-2.72757e-06
-1.08027e-06
1.95074e-07
2.40039e-07
1.57084e-08
4.82848e-08
-2.19081e-07
-4.65017e-07
-6.1321e-08
-8.23619e-08
-4.54482e-08
5.62004e-08
-1.65434e-08
-4.47032e-07
-5.40068e-07
-5.12142e-09
1.11691e-07
4.8468e-08
1.26475e-06
-6.1886e-07
-4.0294e-06
-5.45921e-06
9.64002e-07
1.64501e-06
-9.74607e-06
-1.74154e-06
-1.74784e-05
-1.59799e-05
1.34526e-05
1.86481e-05
2.31948e-06
-4.45586e-07
-1.88378e-07
-1.05255e-07
-1.30393e-06
-5.86221e-07
-4.26478e-08
2.68004e-08
3.0855e-07
5.85151e-07
-1.17508e-07
-7.60021e-07
-1.12467e-07
3.9704e-08
1.00664e-07
-2.5867e-08
-4.81306e-08
-3.00425e-07
-8.53125e-08
7.79173e-10
-3.17948e-08
-8.99161e-09
1.84741e-08
-1.28054e-07
-1.65699e-07
-1.45156e-08
3.01313e-07
-1.61497e-07
-1.69872e-07
-2.28033e-07
-2.45729e-06
-5.22036e-06
-1.35483e-06
2.20088e-06
-4.05632e-06
-8.22925e-06
-8.05546e-06
-1.70097e-05
1.9772e-05
1.4181e-05
1.13706e-06
-5.34363e-08
1.34917e-08
1.29092e-07
-5.5998e-08
-2.73255e-07
-5.07384e-08
-5.62768e-09
1.20009e-08
2.23879e-07
2.50045e-07
-1.86287e-07
-2.29796e-07
-8.2631e-08
-3.36242e-09
-2.13766e-08
-9.48761e-09
-5.08376e-08
-2.63414e-08
8.32311e-09
4.26282e-10
-6.74286e-10
1.06164e-08
-2.75638e-08
-6.59791e-08
7.88451e-08
2.18062e-07
2.95951e-07
-1.82556e-07
8.46523e-09
-5.68163e-07
-2.07946e-06
-1.94722e-06
6.9262e-07
6.94876e-07
-4.25674e-06
-3.90206e-06
-1.05542e-05
1.28375e-05
6.97314e-06
4.41689e-07
-4.38628e-08
5.8532e-09
-3.94558e-09
3.36704e-08
-4.96707e-09
-7.12671e-09
2.57047e-08
-1.3687e-08
2.6104e-08
9.07302e-08
2.64586e-08
-1.1283e-07
-4.82951e-08
1.2288e-08
3.42922e-09
-7.30972e-09
-4.92875e-09
-4.68559e-10
3.02259e-09
1.74365e-10
-6.23689e-11
-1.53622e-10
4.90512e-09
-5.00437e-08
4.85734e-08
8.59928e-08
2.26805e-07
5.85205e-08
4.83637e-08
-1.78672e-08
-2.93406e-08
-8.42989e-07
4.1659e-08
9.39673e-07
4.87371e-07
-1.18266e-06
-4.49137e-06
5.27923e-06
2.81768e-06
2.22239e-07
-8.2821e-09
-3.78987e-09
-2.90693e-09
1.20628e-10
1.6072e-09
4.81666e-09
1.10971e-08
1.68015e-08
-7.31356e-09
1.86427e-08
1.93741e-08
-1.4492e-08
-2.45739e-08
8.73349e-09
9.82772e-09
-5.40614e-10
1.47176e-10
2.05063e-09
3.04948e-09
5.44629e-11
1.39684e-10
-1.57689e-10
4.96012e-10
-1.00325e-08
-7.93627e-09
3.71511e-08
4.11975e-08
7.27628e-08
6.83667e-09
-3.40817e-08
1.80692e-07
-1.08148e-07
-1.83437e-08
2.027e-07
1.13911e-06
3.17354e-08
-1.15817e-06
1.38629e-06
7.98437e-07
1.17843e-07
5.19379e-09
-2.99802e-09
1.10073e-09
-1.39379e-10
-7.7832e-12
-9.6226e-11
-1.76279e-09
1.58781e-09
3.15037e-09
-2.75357e-11
4.25318e-09
1.76216e-09
-7.90045e-09
-3.35636e-09
5.5486e-10
5.32927e-09
1.13354e-10
7.08464e-10
1.75262e-10
1.40449e-11
1.12555e-11
3.68372e-12
-5.16747e-11
-2.01337e-11
-2.72447e-09
1.31279e-08
1.77512e-09
3.25242e-08
5.03539e-09
-4.9758e-08
3.78566e-08
9.32497e-09
-1.05849e-08
1.34549e-08
2.8647e-07
1.01895e-07
-1.51497e-07
1.90774e-07
1.56987e-07
3.8264e-08
7.31235e-09
-4.71882e-11
3.65273e-13
6.45508e-12
1.87453e-12
-2.12388e-12
-1.77896e-12
-5.44537e-11
4.04536e-11
-3.09485e-11
1.0879e-11
1.62209e-10
-1.59895e-10
-1.38186e-09
4.60658e-10
3.01552e-10
2.57873e-11
5.53869e-11
5.74928e-12
1.63304e-13
-2.6644e-14
-7.91901e-13
4.08849e-12
3.16199e-11
2.79076e-10
1.06239e-08
1.00696e-09
3.00462e-09
-5.26974e-09
-2.15215e-08
-1.41073e-09
3.624e-10
1.98625e-10
1.59558e-09
-3.43269e-08
-1.37989e-08
8.97055e-09
7.39655e-09
4.64607e-08
2.48214e-08
2.36073e-10
2.76877e-13
6.57925e-15
-2.44822e-14
1.30753e-14
7.96876e-14
-2.03467e-14
3.30562e-13
-2.65661e-13
1.16047e-13
-3.09653e-13
7.43999e-12
-3.83659e-13
7.06594e-11
2.66147e-12
4.23689e-12
3.57424e-13
7.06784e-13
7.35746e-14
2.02184e-15
-7.53563e-18
2.70196e-15
3.76264e-14
-2.78309e-12
-3.0385e-12
5.43243e-10
7.72902e-10
1.15781e-10
-2.50158e-10
-1.81418e-10
1.99791e-10
-2.93529e-10
4.71629e-11
7.66113e-10
-2.13137e-08
-2.6892e-08
8.29628e-09
8.03773e-10
1.44983e-08
6.45616e-10
6.07469e-12
1.29152e-15
2.54697e-15
-2.62453e-17
-3.49014e-17
-5.50287e-16
1.79728e-16
-1.5491e-15
1.58473e-15
-5.89751e-16
-7.00905e-16
1.03652e-14
1.80233e-16
1.09136e-13
6.85223e-15
3.554e-14
1.04992e-14
1.98178e-15
3.59476e-16
1.86566e-17
-2.26909e-18
-3.31775e-18
2.64827e-16
1.23408e-15
8.48356e-14
1.36786e-11
-1.36789e-10
-2.82645e-11
-1.10515e-12
-1.13739e-12
-1.27054e-15
-1.88464e-11
-2.78075e-11
-4.37692e-12
2.02381e-10
-1.74869e-10
3.54759e-10
1.72883e-11
4.17849e-11
1.43393e-12
5.95992e-15
3.06296e-17
-6.93354e-18
1.28982e-18
1.55945e-19
1.28745e-18
-1.04789e-18
4.10669e-18
-7.43168e-18
8.79465e-19
-1.8269e-18
6.42024e-18
-2.85324e-17
1.989e-17
1.04662e-18
1.07599e-16
7.91677e-17
-8.86498e-18
1.41536e-19
9.6501e-20
7.15171e-20
2.58894e-20
-8.0509e-20
1.49922e-17
3.19335e-16
1.60116e-17
-5.84978e-13
-5.81611e-13
8.42517e-15
-6.08538e-16
1.66128e-15
-2.40684e-14
1.46204e-13
3.11667e-14
-8.97229e-13
-1.10831e-14
1.49198e-12
1.01744e-14
8.37598e-14
6.52325e-15
1.55882e-16
1.11184e-18
6.74444e-21
-1.1706e-20
-1.39973e-19
2.72919e-19
-4.30552e-19
3.40612e-19
-1.78585e-18
-3.64111e-18
1.31228e-18
3.60018e-19
-4.92823e-19
1.81934e-18
2.21166e-19
-4.19807e-19
-5.87157e-20
2.24224e-20
-1.93003e-20
-7.03239e-20
1.46696e-20
-9.06118e-20
-9.03537e-21
2.04915e-20
7.6935e-20
-3.83138e-17
-8.20431e-16
-6.5074e-15
-2.6552e-16
8.67506e-17
1.3287e-17
2.55056e-17
-2.4261e-16
1.2931e-16
2.72738e-15
-4.73028e-16
5.36848e-15
3.17273e-16
4.23071e-16
6.74913e-17
2.04501e-18
1.68561e-19
-1.2572e-20
9.09337e-20
-4.48234e-19
-2.78715e-19
1.75506e-19
3.81523e-19
-2.76561e-19
-1.63167e-18
-2.1426e-18
5.52911e-19
-8.55059e-20
-2.84936e-19
-2.20128e-19
-3.10303e-19
5.73386e-20
1.47247e-20
-1.0376e-19
2.65396e-20
3.55409e-19
4.02242e-20
3.49818e-20
-3.89686e-21
-1.9538e-20
2.50421e-20
-7.3868e-19
-4.39578e-17
-2.69032e-18
6.03165e-19
-5.55048e-20
-1.53876e-19
4.63762e-19
-4.86907e-19
-4.66212e-18
-1.80023e-18
1.62134e-17
5.004e-19
3.75915e-18
7.02464e-19
-2.98476e-20
-6.08136e-20
4.31183e-20
1.02499e-19
-2.59485e-20
-3.36996e-19
-3.64439e-19
-3.61236e-20
-3.06398e-19
1.17964e-18
1.27649e-18
5.53375e-19
-1.22356e-20
7.20894e-20
-7.041e-20
-1.31094e-20
1.18952e-19
-2.58844e-20
-1.64764e-19
-1.31995e-19
-3.85649e-19
-1.21866e-19
-2.56132e-20
-9.29342e-20
-1.5137e-19
9.43959e-20
-2.55029e-20
-2.34846e-19
-3.34968e-19
6.51728e-20
-1.67208e-19
-6.79786e-20
1.36328e-19
-4.74123e-20
-6.74641e-20
1.182e-19
-8.59808e-21
-8.39007e-20
1.01408e-19
-1.25461e-19
-1.09165e-19
-7.50567e-20
-5.47509e-20
5.12437e-20
-4.47747e-19
-4.50505e-19
-9.09251e-19
-5.30573e-19
3.95127e-19
1.05122e-19
3.85271e-19
-1.60461e-19
8.82817e-20
-8.80785e-20
-1.95085e-19
-1.36952e-19
1.70837e-19
-1.39943e-19
-5.98859e-20
-8.01654e-20
1.31692e-19
3.07866e-19
7.68986e-20
1.27803e-19
-1.29784e-19
1.6127e-19
1.28209e-19
-7.34383e-20
-3.54762e-20
-2.3076e-19
-2.69509e-20
6.81635e-21
5.40417e-20
2.08272e-19
5.43686e-20
-9.6232e-20
-8.28076e-20
1.19945e-20
1.52735e-20
-3.29507e-20
-1.01064e-19
3.68449e-19
-2.15054e-19
-7.87515e-20
-5.60688e-20
5.01797e-19
2.61967e-18
6.87297e-19
-2.00141e-18
-3.44836e-19
8.26567e-19
1.0026e-20
2.7656e-19
2.40585e-19
-4.19709e-19
6.85182e-20
-1.22799e-19
3.67894e-20
4.93241e-21
-1.904e-20
1.6812e-19
-2.28738e-19
-1.16022e-19
-7.5882e-21
5.20916e-20
-2.69593e-19
6.37228e-19
1.43282e-19
5.75268e-20
-6.08644e-20
-2.77512e-20
4.10417e-20
2.94824e-20
2.75723e-20
1.139e-19
-2.55006e-20
2.82943e-20
-2.61094e-20
-1.36827e-20
-1.95468e-20
5.41286e-20
-9.65926e-22
9.21147e-20
4.77712e-21
2.47031e-19
2.2477e-19
3.40233e-19
-4.47447e-19
-1.33315e-18
-2.83039e-19
-2.57322e-20
1.87986e-19
-8.75472e-20
-5.74773e-20
-1.04214e-19
-5.23842e-20
-7.99918e-20
4.60101e-20
-1.03549e-20
1.32195e-19
1.44675e-20
-7.56104e-21
-2.88769e-19
-1.25142e-19
-9.68984e-20
3.75027e-22
1.65357e-19
-2.14924e-19
1.6852e-19
-1.64308e-19
7.63232e-21
2.55974e-20
1.3786e-19
-4.51352e-20
6.57753e-20
6.68671e-20
-3.54202e-20
-8.87759e-20
-1.91662e-20
3.66357e-20
4.58613e-20
7.69846e-20
8.56862e-20
6.66491e-20
-6.81008e-20
7.3147e-20
5.14005e-19
-2.02501e-19
8.51429e-19
-7.32188e-20
-5.77307e-20
-8.28177e-20
7.02551e-19
2.55745e-19
-2.60149e-20
-3.15303e-20
-2.23386e-20
3.97408e-21
1.60412e-22
6.01362e-20
-1.38411e-19
-3.36878e-20
-1.8677e-20
1.71973e-19
4.40657e-20
9.54802e-22
2.5445e-20
-6.81409e-21
-6.08946e-20
-3.79687e-20
-1.78244e-19
-6.23616e-20
-1.97191e-19
-7.32537e-20
-2.22215e-21
2.21929e-19
3.6082e-20
1.06851e-19
1.16285e-19
-1.99961e-20
-6.05923e-21
1.74878e-19
1.49533e-19
-8.87497e-20
1.35805e-19
-2.08246e-20
7.68698e-20
3.92912e-19
4.12759e-19
6.81758e-20
-4.18412e-21
4.89495e-20
6.04182e-20
-6.89245e-20
1.72154e-21
7.28142e-21
3.29111e-20
-1.8292e-20
1.58681e-20
-1.11264e-19
-1.13781e-19
1.35739e-19
1.32972e-19
-8.4439e-20
-2.66758e-20
-7.82219e-20
1.85961e-20
-3.00931e-19
-6.42103e-20
-2.10661e-20
-5.85137e-20
-2.14359e-19
1.8041e-20
-9.84155e-20
-1.50329e-19
1.44847e-19
4.98231e-19
3.17863e-19
-3.55537e-20
-6.74322e-20
3.47237e-20
-1.13897e-19
-1.90248e-19
1.74651e-19
1.42404e-19
-4.40347e-20
2.09309e-19
-1.03803e-19
4.41378e-20
5.1852e-20
-8.6229e-21
-1.69213e-20
3.96732e-20
7.41729e-20
-1.7349e-21
3.17497e-21
-8.28178e-20
-6.49399e-20
-7.57116e-21
1.30504e-19
3.11374e-19
-3.24436e-19
-1.61471e-20
6.08967e-20
-1.37881e-19
5.18908e-20
-8.72154e-20
-3.20922e-20
1.1084e-19
-1.3798e-20
9.79291e-20
-5.51757e-20
9.42176e-21
3.60378e-20
-9.39494e-20
-8.05881e-20
2.03283e-19
3.04473e-19
-6.42739e-20
1.04572e-19
-5.30424e-20
4.07655e-20
-4.25771e-19
-2.15666e-19
2.18068e-19
4.99554e-20
3.20276e-20
1.26946e-20
-2.19366e-19
5.52446e-20
8.08895e-20
-2.83028e-20
6.42043e-20
1.43855e-20
1.36888e-06
1.7958e-06
1.20722e-06
1.89736e-07
2.16042e-06
1.85015e-06
-3.09164e-06
-5.47438e-06
-2.78812e-06
1.54329e-06
4.45973e-06
8.50442e-06
9.98513e-06
6.52209e-06
9.8945e-07
2.61402e-06
2.07082e-05
3.27272e-05
1.80632e-05
2.00358e-05
8.814e-06
-3.58426e-05
-4.02345e-05
-4.06856e-05
-2.25044e-05
-9.92335e-06
-9.99596e-06
-4.88403e-06
1.79093e-05
3.49756e-05
2.88704e-05
7.53182e-06
-1.31055e-05
-9.96784e-06
-4.29467e-06
-5.57037e-06
-2.15759e-06
8.34167e-06
7.21044e-06
3.27972e-06
2.89368e-05
6.34428e-06
-2.9087e-06
3.08654e-06
1.63738e-05
2.99331e-05
1.08607e-05
-1.90287e-05
-1.15125e-05
1.74661e-05
2.79023e-05
1.15294e-05
-1.44653e-05
-3.2005e-05
-5.44251e-05
-7.77278e-05
-3.36333e-05
0.000133821
0.000281527
0.000133407
-0.000140594
-0.000222324
-0.000150226
-0.000155781
-0.00011448
-2.4361e-05
6.30706e-05
0.000111629
0.000123801
0.000124241
0.000138822
0.000144763
7.81277e-05
-1.73027e-05
-5.24196e-05
-3.4062e-05
7.98152e-06
4.07807e-05
5.31561e-05
4.71319e-05
2.12171e-05
9.05824e-06
-6.90236e-07
-2.49864e-07
8.10059e-08
1.01211e-05
1.6756e-05
1.82516e-06
-5.2611e-06
8.86297e-06
1.97694e-05
1.09422e-05
-5.15121e-06
-1.03797e-05
-1.40015e-05
-3.4492e-05
-5.34141e-05
-9.1974e-06
0.000100464
7.48526e-05
-5.1086e-05
-4.46497e-05
2.40212e-05
-1.02693e-05
-5.33597e-05
-9.7076e-06
5.38092e-05
6.514e-05
3.48438e-05
1.58242e-05
3.10509e-05
5.07758e-05
4.44105e-05
7.80743e-06
-1.48702e-05
-7.9686e-06
7.32469e-06
7.84376e-06
1.28452e-05
2.04737e-05
1.11349e-05
7.37104e-06
8.97989e-07
-3.17962e-07
-2.42829e-06
-1.76196e-06
3.68336e-06
2.60481e-06
-5.00572e-07
5.20117e-06
1.13879e-05
4.70818e-06
-4.63287e-06
-3.0951e-06
4.26156e-06
3.124e-06
-1.25547e-05
-2.22405e-05
4.5809e-06
8.4518e-06
-5.08185e-05
-1.52102e-05
3.38145e-05
8.17002e-06
-5.69062e-05
-4.74541e-05
-2.37424e-06
1.00658e-05
2.87253e-06
9.07565e-07
1.09259e-05
2.06779e-05
1.86971e-05
5.46615e-06
-6.72898e-06
-2.93942e-06
2.76602e-06
3.03908e-06
2.3201e-06
6.63212e-06
2.45138e-06
2.64761e-06
7.56041e-07
4.73955e-08
1.33825e-07
-4.14064e-07
-2.92763e-07
1.6557e-07
-3.48544e-07
1.34824e-06
3.31915e-06
2.90179e-06
-1.33488e-06
-7.3052e-07
3.56865e-06
4.88106e-06
1.29294e-06
-1.55727e-06
-3.58922e-07
-9.76236e-07
-3.63205e-05
-7.14485e-06
-9.47678e-06
-1.49008e-05
-3.04042e-05
-2.62083e-05
-5.59908e-06
2.32898e-07
-5.09849e-07
2.36301e-06
5.42304e-06
6.03484e-06
3.69985e-06
-8.50001e-07
-6.54122e-06
-3.75017e-06
1.68908e-06
1.75394e-06
-1.14599e-07
-8.63807e-08
-4.32548e-07
1.98043e-07
4.73612e-07
-5.27767e-08
9.04618e-07
9.23911e-07
-2.88201e-07
-4.49832e-07
-4.29557e-07
1.09658e-06
4.07646e-07
1.01764e-06
-4.96959e-07
-1.92022e-06
-1.00627e-06
-9.31278e-07
-1.56891e-06
3.05443e-07
8.78652e-07
2.47379e-06
-2.32022e-05
-7.19289e-06
-2.25262e-05
-2.82383e-05
-4.59264e-06
-4.17744e-06
-3.01654e-06
-3.92319e-07
-5.6546e-07
8.38387e-07
1.12202e-06
4.10515e-07
1.08187e-07
-1.0693e-07
-1.79959e-06
-3.24019e-06
1.1268e-06
1.75748e-06
-3.26527e-07
-1.37237e-06
-1.07292e-06
-4.75594e-07
3.55104e-07
-1.34886e-07
5.8558e-07
1.12056e-06
2.65577e-07
-2.87119e-07
-5.40056e-07
3.829e-08
7.96144e-07
-3.23659e-07
-2.86767e-07
-1.43235e-06
-2.14283e-06
-2.63958e-06
-2.11496e-06
-4.0021e-07
1.31558e-06
8.96795e-07
-9.23497e-06
-1.52373e-05
-1.8955e-05
-2.65181e-05
8.32824e-06
6.81607e-06
2.37091e-07
2.17728e-08
-2.7097e-07
3.94554e-08
1.63877e-07
-1.31233e-07
-1.06893e-07
3.04491e-08
2.77029e-07
-1.68372e-06
-2.36917e-07
1.84977e-06
9.46683e-08
-1.16989e-06
-8.13044e-07
-6.28268e-07
1.45522e-07
3.15252e-08
1.3668e-07
6.32652e-07
3.81738e-07
1.43066e-08
-2.16969e-07
-7.74866e-07
4.52516e-07
4.41018e-09
-5.32062e-07
-6.05594e-07
-1.43727e-06
-1.71715e-06
-7.76039e-07
-5.01878e-07
8.40879e-07
1.16318e-07
-1.74876e-06
-1.3563e-05
-1.19424e-05
-1.47964e-05
8.32784e-06
5.29683e-06
4.62547e-07
2.64142e-08
-1.7401e-08
-1.65169e-08
1.42349e-08
-2.18108e-08
-4.7925e-08
-8.58779e-09
2.25217e-07
-3.36913e-07
-1.04939e-06
7.76532e-07
4.42371e-07
-6.07931e-07
-3.16417e-07
-3.97585e-07
-2.21875e-08
1.02439e-07
-2.44867e-08
2.25804e-07
2.47692e-07
8.21953e-08
1.0378e-07
-2.99887e-07
-3.43258e-07
3.25352e-07
-2.8515e-07
-1.84909e-07
-6.46182e-07
-5.83686e-07
2.19863e-08
-3.19631e-07
2.15104e-07
2.2393e-07
2.0626e-07
-5.98563e-06
-5.1491e-06
-5.67056e-06
4.35645e-06
2.16612e-06
1.47375e-07
9.49602e-09
5.08037e-09
3.88788e-09
3.15213e-09
1.33824e-08
-2.84053e-08
4.26553e-08
-7.84099e-09
4.45022e-08
-4.86569e-07
-6.7469e-08
2.91506e-07
-2.23864e-07
-7.85497e-08
-1.23556e-07
-2.97449e-08
5.12748e-08
-3.40177e-08
5.69583e-08
7.93828e-08
3.22152e-08
6.61581e-08
1.1421e-07
-1.82236e-07
8.27128e-08
5.80131e-08
-1.63336e-07
-2.34196e-07
-1.34633e-07
7.84886e-08
-1.36674e-07
-1.03637e-08
7.04859e-08
4.26967e-07
-9.59933e-07
-1.28529e-06
-1.5268e-06
1.74796e-06
6.11845e-07
1.08312e-08
-1.06881e-09
5.48304e-09
2.99075e-09
-4.01039e-10
3.2824e-09
-2.23052e-09
1.98465e-08
9.12586e-09
-1.12696e-08
-7.08211e-08
-1.29246e-07
6.49131e-08
-5.18468e-08
-5.52647e-09
-2.33425e-08
-9.39789e-09
1.29279e-08
-8.13804e-09
6.57606e-09
1.14832e-08
7.83841e-09
1.33431e-10
1.04091e-07
2.92812e-08
8.35777e-09
1.04564e-07
-1.41479e-07
-1.16863e-07
-3.8577e-08
2.24579e-08
-2.67198e-08
-1.91466e-08
-1.19875e-10
1.25836e-07
5.36907e-07
-9.47267e-08
-2.86601e-07
4.24993e-07
5.46855e-08
-1.66603e-08
-1.22054e-09
1.74161e-09
8.75846e-11
-4.54861e-11
-3.54962e-10
3.94034e-10
-1.5746e-09
1.38916e-08
-1.19042e-08
-1.15389e-09
-3.45681e-08
-5.53914e-09
3.82517e-09
1.13275e-08
1.44106e-09
-8.29461e-09
5.8599e-09
1.7251e-09
3.93792e-10
3.68528e-09
6.33954e-10
-2.25014e-09
2.80217e-08
4.05788e-08
-5.51271e-10
1.83676e-08
-4.99833e-08
-5.03491e-08
-1.54711e-08
-7.19193e-09
-9.68242e-10
-6.37133e-09
-2.95999e-09
2.20108e-09
3.67685e-07
4.92794e-08
-2.35541e-08
-8.17357e-10
-3.71478e-08
-4.61315e-09
-3.88706e-11
4.58742e-12
-1.12569e-13
6.53333e-13
-1.81417e-11
-5.54413e-12
-2.757e-10
1.55167e-09
-4.50326e-11
-1.82785e-09
-1.298e-09
-5.85182e-09
-6.5158e-09
5.23363e-10
3.82081e-09
7.87605e-10
1.59002e-09
5.46215e-10
4.68858e-11
1.03926e-11
6.7214e-12
2.05413e-11
2.87674e-10
1.62419e-08
1.29572e-09
1.41627e-09
-8.21701e-09
-2.58348e-08
-1.19278e-09
-1.01577e-09
2.49315e-10
-6.85079e-09
-2.49034e-09
7.53676e-09
9.19221e-08
1.1733e-08
6.14912e-09
-2.684e-08
-1.12783e-08
2.74247e-11
1.24008e-12
1.19961e-13
8.35424e-15
-6.46746e-15
2.10547e-13
1.96723e-13
3.4515e-12
-1.7818e-11
5.77138e-11
9.08212e-13
-1.14833e-11
-1.41454e-10
-8.07327e-10
4.24067e-10
3.73243e-10
8.01015e-12
7.63238e-11
8.08534e-12
3.69746e-13
-3.80823e-14
2.68057e-13
1.89179e-12
-1.44402e-11
1.29684e-11
-4.87082e-10
-2.1863e-10
-1.78806e-10
-2.55565e-10
-7.91987e-11
3.18286e-12
5.68131e-11
1.68629e-11
-1.63258e-11
-2.64095e-10
8.68229e-09
3.04927e-10
6.00285e-10
-6.57737e-09
-1.13599e-10
3.18757e-12
-9.18169e-14
-3.59057e-15
-2.2742e-16
1.36312e-17
-1.39929e-15
-4.64852e-15
-2.78946e-14
1.4086e-13
-2.36336e-13
4.62718e-15
4.12652e-15
-4.69298e-13
3.97074e-11
2.3954e-12
4.25832e-12
-7.63781e-13
4.60152e-13
4.11557e-14
5.57183e-16
1.88667e-16
-2.43279e-15
8.11415e-15
1.54088e-14
4.24352e-14
-1.4447e-12
-4.14615e-12
-1.15743e-13
-2.06151e-12
-2.89063e-13
-8.96858e-15
-6.91558e-13
2.66128e-13
-1.32428e-13
7.9196e-11
-3.1534e-11
5.30069e-11
3.12773e-11
-3.77655e-11
-1.85479e-12
-6.19342e-14
-2.22228e-15
-1.11304e-16
-3.28895e-18
1.9477e-19
6.65329e-19
3.6232e-17
1.17558e-16
-7.62273e-16
8.43403e-16
1.77638e-16
-1.43406e-17
-1.79589e-15
8.05897e-14
6.43574e-15
1.97952e-14
-2.09551e-14
-3.86935e-15
-4.7632e-17
2.91404e-19
-6.92787e-20
-6.3584e-19
-3.74805e-17
-1.18823e-18
-9.43353e-17
1.31355e-15
-3.94279e-14
8.67413e-15
-1.36386e-14
-1.2863e-15
-8.6027e-17
4.09896e-15
-4.67729e-15
2.97841e-15
-6.61932e-13
-3.7529e-14
7.36077e-13
5.78548e-13
-2.64754e-13
-6.67833e-15
1.10602e-15
1.92024e-17
-7.07253e-19
-9.61146e-20
-4.70651e-19
-1.9208e-19
4.21349e-19
3.46552e-19
2.77473e-18
6.55003e-19
5.02308e-18
-5.52135e-18
-1.8259e-17
1.66411e-16
1.08642e-17
3.26094e-17
-1.42489e-16
-2.20247e-17
-6.83182e-19
4.04658e-20
5.31114e-20
-1.2085e-20
1.28929e-21
-1.61511e-19
1.88615e-20
1.65162e-17
-2.19247e-16
5.61649e-17
-5.89542e-17
-5.91951e-18
-9.55933e-21
-5.22301e-18
1.60892e-17
-1.09846e-18
1.78648e-15
-1.37965e-16
2.98843e-15
4.3516e-15
7.98194e-16
7.32493e-16
6.00901e-17
1.47635e-18
4.50498e-20
-3.65147e-20
-1.94337e-19
8.49604e-19
-5.46635e-19
4.63509e-19
-5.10335e-19
1.94685e-18
1.39624e-18
6.39248e-19
-4.16744e-20
1.45926e-18
3.30879e-20
-1.41291e-20
-5.14743e-20
9.41801e-20
4.13482e-20
1.57298e-19
-1.47995e-19
-4.27002e-20
-1.23494e-19
8.70602e-20
-4.48016e-19
6.42545e-19
-8.06221e-19
-4.10755e-19
1.3474e-19
3.18513e-19
-4.56822e-20
-5.31621e-20
-9.83074e-20
-8.1583e-20
-1.33804e-18
-1.36409e-18
4.46935e-18
6.6502e-18
3.26474e-17
1.17248e-17
7.52139e-19
1.56866e-19
-5.29209e-20
-3.17593e-20
-2.85195e-20
2.75762e-19
1.58744e-19
-3.3458e-19
3.03845e-20
7.86334e-19
1.3314e-18
2.14882e-19
-2.86395e-19
-1.70854e-19
-1.65769e-19
-5.05846e-20
1.27003e-19
1.43337e-19
-2.809e-20
-8.2444e-20
-1.39096e-19
1.74041e-20
-2.05298e-19
3.27242e-20
4.56863e-20
-3.8811e-19
2.20309e-19
-4.0987e-20
1.01616e-19
4.93331e-21
7.93859e-20
4.81268e-20
5.18512e-20
1.30633e-20
-1.07114e-20
1.66183e-19
1.48076e-19
-1.215e-19
1.57341e-19
-1.08223e-19
-1.38043e-19
5.5556e-22
2.04051e-20
-3.30169e-20
1.25191e-19
1.18831e-19
-1.51176e-18
4.08326e-19
1.42672e-18
-1.05111e-18
8.20314e-19
2.93777e-19
3.13701e-19
-7.23974e-20
-1.88145e-19
-1.3805e-19
-1.5915e-20
6.20814e-21
-7.14396e-21
-1.67546e-19
2.76585e-19
8.31054e-20
5.85645e-20
-6.46069e-20
1.14832e-19
-1.58075e-19
1.16095e-19
-3.78365e-20
3.63957e-19
-6.87707e-20
-5.82758e-20
6.15e-20
8.57366e-21
1.56025e-20
-5.20025e-22
-3.11129e-20
9.98413e-21
1.9746e-20
4.63798e-20
3.41221e-21
-1.12931e-19
3.55829e-20
-6.88798e-20
-1.55389e-19
6.8539e-20
4.80343e-19
5.59428e-19
-3.30543e-18
-1.49322e-18
7.71363e-19
-3.52668e-19
3.90659e-19
-1.59771e-20
2.05154e-19
5.2689e-19
1.91158e-19
1.91053e-20
-1.2119e-19
-8.04769e-21
-1.87875e-20
-2.46754e-20
2.55804e-20
2.8907e-19
1.87742e-19
6.53811e-20
-3.02272e-19
-1.09179e-19
2.33827e-19
1.04427e-20
5.63564e-20
-2.55956e-20
4.11772e-20
-7.25334e-21
7.51971e-21
2.93649e-21
6.91647e-21
-1.61711e-20
-1.17056e-20
-9.80307e-21
9.58666e-20
2.42555e-20
-1.0996e-19
4.60544e-20
-3.06027e-20
-1.06036e-19
2.67222e-19
3.66314e-19
-3.54941e-19
-8.33645e-19
1.00459e-18
5.37409e-20
-5.99744e-19
-1.46124e-18
-1.22599e-18
-9.07262e-20
2.18956e-19
-6.86785e-20
2.69485e-20
-1.48975e-20
1.72202e-19
2.00883e-19
4.42173e-20
-1.93486e-19
-2.3716e-20
-2.56972e-20
8.28419e-20
-3.61879e-19
2.46047e-19
2.11204e-19
1.00943e-21
7.20852e-20
-4.08502e-19
4.03307e-20
-2.92456e-20
-4.72851e-20
3.04597e-20
3.62486e-20
9.4345e-20
7.55203e-20
-5.50389e-20
1.27842e-19
-1.83361e-19
-1.06786e-19
1.08963e-19
-1.09691e-19
-3.14219e-21
1.6843e-19
-4.4943e-19
-4.6403e-19
-5.18269e-19
2.18296e-20
2.47221e-19
3.04248e-19
7.49695e-19
2.2769e-19
2.00991e-20
2.83609e-20
-5.34988e-22
1.77277e-20
-1.80208e-20
2.94286e-20
-3.94833e-21
-3.80762e-20
-1.14708e-19
-1.50881e-20
-2.56783e-20
-1.76472e-19
2.07364e-19
-4.0941e-21
-1.39832e-19
5.07565e-20
-3.4273e-20
9.37876e-20
-5.33548e-20
3.93951e-20
2.06384e-20
-6.99753e-20
-6.17211e-20
-8.88879e-20
1.46231e-20
1.0527e-19
7.2195e-20
-2.24627e-19
-1.11505e-19
-1.10036e-19
9.0291e-20
-1.37313e-19
2.68908e-19
2.22369e-19
-9.52087e-20
1.08915e-20
-1.339e-19
3.2439e-19
2.53499e-20
1.94587e-20
-4.36287e-21
-8.41358e-21
6.64565e-21
8.19289e-21
7.49474e-20
-7.30942e-20
-5.98048e-20
-8.40042e-21
8.7069e-20
4.61496e-20
-2.42562e-19
-1.66438e-19
1.81169e-19
-2.39279e-20
-6.79617e-22
5.56812e-20
3.96401e-20
-1.03692e-19
-9.29146e-21
-3.81027e-20
-6.03217e-20
-7.92447e-20
-1.29257e-20
-2.9051e-19
9.89594e-21
5.52373e-20
1.10304e-19
-8.09749e-20
-5.92864e-19
4.88505e-20
9.80349e-20
4.06504e-19
3.64802e-19
-6.27744e-20
-1.21692e-21
-3.50787e-20
6.10823e-20
-3.05504e-20
4.3883e-20
3.27523e-20
4.91531e-20
2.67079e-20
6.01181e-21
4.3857e-20
-1.53278e-19
1.70375e-19
3.54935e-19
-7.12893e-20
-1.52292e-19
1.87243e-20
1.62763e-20
-1.48654e-19
-1.1106e-19
8.98857e-20
1.50133e-19
3.16627e-20
1.57538e-20
-2.94586e-20
-5.68423e-21
6.90781e-20
-1.41316e-20
1.69192e-19
-8.02283e-20
1.81051e-19
3.89749e-20
-7.85429e-22
6.92341e-21
2.52026e-19
-3.0273e-19
-2.9173e-19
-1.59358e-20
2.32919e-19
6.16655e-19
-1.02896e-18
-6.11792e-20
7.77084e-21
3.11965e-20
1.07542e-19
-1.69016e-19
-8.29683e-08
1.89314e-06
-4.03342e-06
-3.24418e-06
2.64171e-07
7.83026e-08
-1.99469e-07
-1.26397e-06
7.10247e-07
6.14239e-07
4.16172e-08
2.33667e-06
2.82883e-06
1.47312e-06
7.70585e-06
1.31093e-05
2.08378e-05
4.00996e-05
6.85444e-05
6.684e-05
6.84648e-05
4.24714e-05
-9.71234e-06
-2.77509e-05
-4.75877e-05
-3.75662e-05
-4.93515e-06
1.78102e-05
1.96807e-05
9.59902e-06
5.47103e-07
-5.49053e-06
-6.37652e-06
-1.44711e-06
-1.75659e-06
-3.1527e-06
-1.30821e-05
-1.5698e-05
-6.70007e-06
-1.28803e-06
-7.44365e-05
-7.39933e-05
-4.47194e-05
-2.55206e-05
-2.0127e-05
-4.51968e-06
1.52907e-05
1.7685e-05
9.94486e-06
5.886e-07
-2.33834e-05
-5.22648e-05
-7.16301e-05
-9.16328e-05
-0.000128409
-0.000170447
-0.000164182
-5.89594e-05
0.000165615
0.000398033
0.000240921
-9.09954e-05
-8.43824e-05
4.08454e-06
4.75656e-05
9.6071e-05
0.000114555
9.74513e-05
5.67623e-05
1.35897e-05
-9.52673e-06
-1.4007e-05
-1.84546e-05
-8.36242e-06
2.72015e-05
1.28301e-05
-2.46179e-05
-1.27938e-05
-4.76028e-06
-3.7576e-05
-4.65589e-05
-5.63064e-05
-2.70843e-05
-1.1042e-05
-1.27342e-05
-4.06554e-06
9.24058e-06
1.47642e-05
7.8614e-06
1.03651e-07
-7.27065e-06
-2.1028e-05
-3.13847e-05
-3.82096e-05
-6.04059e-05
-9.28923e-05
-0.000114148
-9.39069e-05
-1.10778e-05
0.000119797
9.6822e-05
-7.19967e-05
-4.26668e-05
6.77697e-05
8.09316e-05
8.88042e-05
8.39211e-05
5.50321e-05
2.15945e-05
2.79772e-06
-4.36226e-06
-4.5394e-06
-3.34025e-06
-2.61711e-06
4.57698e-06
-2.21123e-06
-9.211e-06
2.36858e-06
7.83911e-06
-1.17487e-05
-1.67378e-05
-2.55944e-05
-1.03142e-05
-1.46949e-06
-5.12307e-06
-3.8323e-06
3.52401e-07
2.3734e-06
1.85836e-07
-1.73568e-06
-3.31332e-07
-2.48726e-06
-7.41743e-06
-1.17734e-05
-1.85772e-05
-2.8511e-05
-3.91725e-05
-4.44176e-05
-3.07552e-05
1.37838e-05
1.32593e-05
-5.5727e-05
-2.28302e-05
3.81594e-05
4.02175e-05
3.90366e-05
2.83339e-05
1.20098e-05
3.82937e-06
7.04475e-06
1.01777e-05
7.78492e-06
3.47984e-06
6.09589e-07
3.05452e-06
3.2911e-06
-1.8407e-06
3.97542e-06
5.0311e-06
-3.54978e-06
-3.44858e-06
-6.67346e-06
-3.77295e-06
7.33233e-08
-1.42251e-06
-2.00726e-06
-9.61019e-07
-3.05648e-08
2.47904e-07
-6.21295e-07
-4.69173e-07
-5.94353e-07
-7.26487e-07
-1.07287e-06
-2.33635e-06
-3.45325e-06
-4.34103e-06
-5.37231e-06
-6.77229e-06
-2.95061e-07
-9.00559e-07
-2.07664e-05
-1.60336e-05
-4.27499e-06
-1.05909e-05
4.86776e-06
5.63949e-06
1.29031e-06
2.50275e-06
6.80847e-06
7.98146e-06
5.88945e-06
2.09884e-06
-1.30033e-06
-1.21644e-06
1.22127e-06
8.18121e-07
9.6089e-07
9.80213e-07
-1.37081e-06
-2.26997e-08
2.77492e-07
-9.8724e-07
3.16191e-07
6.02928e-07
-4.83284e-07
-8.27219e-07
-6.74214e-07
2.29805e-07
3.32742e-07
-1.052e-08
-2.56332e-07
2.96338e-07
7.55284e-07
-3.79409e-07
-6.72534e-07
2.68331e-07
8.25987e-07
4.84514e-07
-8.30868e-07
-9.48652e-07
-8.07183e-06
-6.12304e-06
-1.15204e-05
-2.32646e-05
-2.1623e-06
2.1129e-06
2.68113e-07
3.80676e-07
1.14417e-06
6.75955e-07
8.46695e-07
6.42945e-07
-4.46423e-07
-1.02589e-06
4.52963e-07
1.17932e-06
3.34704e-07
-9.14388e-07
-1.1549e-06
-6.51822e-08
1.61367e-06
1.97201e-07
-2.68603e-07
1.22324e-06
4.09179e-07
-3.76102e-07
-6.74138e-07
-3.6261e-07
4.78284e-07
2.52609e-07
7.17008e-08
2.0141e-07
4.22754e-07
-2.037e-07
-7.46106e-08
5.36669e-07
4.74772e-07
9.16743e-07
-2.3789e-07
4.03359e-07
-5.30308e-06
-4.56021e-06
-6.45583e-06
-1.49343e-05
-4.56277e-07
2.07342e-06
6.21935e-07
-2.33997e-07
-4.83388e-07
-7.96705e-07
-3.44504e-07
6.06768e-08
-4.74996e-08
-3.26953e-07
-9.77128e-08
1.06212e-06
4.83462e-07
-1.12842e-06
-9.22677e-07
2.68825e-08
1.21772e-06
9.36733e-07
-5.24558e-07
8.30457e-07
6.9937e-07
1.09355e-08
-2.62634e-07
-3.16614e-07
-5.49631e-08
2.25214e-07
-9.90031e-08
-1.4716e-07
-1.02412e-07
-1.73155e-07
1.5081e-07
3.01214e-07
1.52085e-07
3.35376e-08
9.32218e-08
1.4847e-07
-1.67436e-06
-4.88361e-06
-2.69894e-06
-5.86877e-06
5.94478e-07
1.45938e-06
6.48671e-07
-2.90446e-08
-1.60631e-07
-1.53749e-07
-7.37263e-08
-3.76903e-09
2.4374e-08
-1.74263e-08
-1.99724e-07
2.70807e-07
4.36315e-07
-6.39306e-07
-6.01994e-07
1.44393e-07
6.6303e-07
9.15319e-07
-1.93269e-07
3.0421e-07
4.72939e-07
1.37994e-07
-1.67429e-08
4.09461e-10
-2.19244e-08
-5.25799e-08
-1.34352e-07
-4.43862e-07
-3.54983e-07
-1.34881e-07
3.49571e-08
9.73531e-08
1.4408e-07
-3.28472e-08
-3.43003e-08
2.20482e-08
-1.58771e-07
-2.19029e-06
-1.05146e-06
-1.78192e-06
4.76161e-07
5.60477e-07
2.26822e-07
2.22964e-10
-1.21396e-08
-1.83768e-09
1.84612e-09
9.19603e-10
5.36938e-08