/*--------------------------------*- C++ -*----------------------------------*\
| =========                 |                                                 |
| \\      /  F ield         | OpenFOAM: The Open Source CFD Toolbox           |
|  \\    /   O peration     | Version:  5.0                                   |
|   \\  /    A nd           | Web:      www.OpenFOAM.org                      |
|    \\/     M anipulation  |                                                 |
\*---------------------------------------------------------------------------*/
FoamFile
{
    version     2.0;
    format      ascii;
    class       volVectorField;
    location    "50.4676134421789371";
    object      testv;
}
// * * * * * * * * * * * * * * * * * * * * * * * * * * * * * * * * * * * * * //

dimensions      [0 1 -2 0 0 0 0];

internalField   nonuniform List<vector> 
60000
(
(4.97045e-08 6.0289e-06 -8.12519e-07)
(3.63066e-07 3.1922e-06 -1.33991e-07)
(2.23844e-07 1.06998e-05 -1.02902e-07)
(-2.676e-07 1.37248e-05 -1.76451e-07)
(-3.69577e-07 6.4889e-06 1.81019e-07)
(-9.70176e-08 4.21978e-07 4.59086e-07)
(7.03121e-08 9.36942e-07 -2.40397e-07)
(1.87991e-07 4.10448e-06 -1.30643e-06)
(2.11583e-07 1.40331e-05 -1.98592e-06)
(-2.72845e-08 2.65184e-05 -2.12138e-06)
(-2.32957e-07 2.59866e-05 -1.54964e-06)
(-1.62092e-07 1.3129e-05 4.79925e-08)
(-2.63873e-08 3.95019e-06 1.85467e-06)
(3.10862e-08 2.07564e-06 3.05009e-06)
(9.8905e-09 3.69023e-06 3.78239e-06)
(-3.1397e-08 7.66644e-06 3.98431e-06)
(2.2833e-09 1.18472e-05 3.67795e-06)
(2.07754e-07 1.77944e-05 2.80138e-06)
(8.80193e-07 2.74569e-05 9.62153e-07)
(2.1874e-06 4.60141e-05 -1.5525e-06)
(3.31163e-06 8.39961e-05 -2.7786e-06)
(2.54702e-06 0.000148189 -1.1999e-06)
(8.90285e-07 0.000207065 1.11479e-06)
(1.23187e-06 0.000266407 2.34375e-08)
(2.52465e-06 0.000366652 -3.78321e-06)
(1.2833e-06 0.000480626 -8.02461e-06)
(-2.96817e-06 0.000511531 -1.00905e-05)
(-5.78632e-06 0.000388292 -6.97252e-06)
(-4.13786e-06 0.000188523 -3.47647e-07)
(-1.18376e-06 6.26859e-05 3.52306e-06)
(4.7637e-07 3.45492e-05 6.0178e-06)
(8.6747e-07 5.58851e-05 8.51632e-06)
(-1.4069e-07 9.30152e-05 7.50157e-06)
(-1.23036e-06 9.47514e-05 3.38797e-06)
(-7.39556e-07 4.25415e-05 -1.00529e-07)
(-1.19476e-07 5.70551e-06 1.17161e-06)
(5.385e-09 3.62164e-06 -1.61782e-07)
(2.00951e-07 4.08318e-06 -3.45666e-06)
(-4.09385e-08 1.79665e-05 -3.7404e-06)
(-2.02602e-07 1.73985e-05 -2.36054e-06)
(-1.48946e-06 2.17135e-05 -1.07077e-05)
(7.0925e-08 4.91895e-06 -3.05565e-06)
(8.1653e-07 -2.55555e-06 -4.45031e-07)
(-1.2985e-07 -1.91513e-06 1.01323e-07)
(-9.35415e-07 2.08684e-06 1.6067e-06)
(-4.53565e-07 1.96895e-06 4.04153e-06)
(2.94259e-07 -1.17487e-08 2.68471e-06)
(1.11499e-06 1.06273e-06 -3.44493e-06)
(2.02989e-06 7.31255e-06 -1.02344e-05)
(1.23722e-06 2.36582e-05 -1.55488e-05)
(-1.09497e-06 3.41285e-05 -1.72005e-05)
(-2.04639e-06 2.44604e-05 -1.09771e-05)
(-1.08707e-06 8.33109e-06 8.38508e-07)
(-6.0565e-08 1.84478e-06 9.63491e-06)
(5.53659e-07 2.57318e-06 1.52657e-05)
(8.58378e-07 1.04638e-05 2.00546e-05)
(1.02023e-06 1.93711e-05 2.28251e-05)
(1.34699e-06 1.97112e-05 2.19232e-05)
(1.87815e-06 1.35541e-05 1.60489e-05)
(3.29503e-06 5.92052e-06 2.66123e-06)
(6.66252e-06 -2.01986e-06 -1.00721e-05)
(9.6164e-06 9.40675e-06 -1.13761e-05)
(1.09553e-05 5.24181e-05 -6.00945e-06)
(1.4756e-05 9.98736e-05 -4.37468e-06)
(1.88458e-05 0.000144628 -1.10628e-05)
(1.32137e-05 0.000183121 -2.30089e-05)
(-6.04785e-06 0.00019777 -3.5045e-05)
(-2.62314e-05 0.000170592 -3.52036e-05)
(-2.83133e-05 0.000101226 -1.28065e-05)
(-1.42421e-05 3.52766e-05 1.54938e-05)
(-1.21259e-06 8.99553e-06 2.85408e-05)
(4.94655e-06 6.87589e-06 3.90841e-05)
(4.08014e-06 2.38199e-05 4.20772e-05)
(-3.73891e-06 4.96616e-05 2.8799e-05)
(-8.17581e-06 4.47562e-05 6.60887e-06)
(-3.79837e-06 1.01861e-05 -2.80023e-06)
(-1.69772e-07 6.91274e-07 6.23595e-06)
(1.22678e-06 -8.45215e-07 -9.02935e-06)
(1.38981e-06 1.14802e-05 -2.0433e-05)
(-9.8186e-07 2.92251e-05 -1.91545e-05)
(-2.49983e-06 8.8197e-06 -1.14768e-05)
(-2.3118e-06 2.15492e-06 -4.17465e-06)
(-5.99458e-07 -5.84545e-06 -4.59212e-07)
(2.35572e-07 -7.65098e-06 6.24638e-07)
(1.22111e-07 -7.25924e-07 1.64029e-06)
(-2.93926e-07 6.99517e-06 3.20038e-06)
(-5.395e-08 4.43908e-06 4.00596e-06)
(9.08171e-07 -2.0763e-06 -3.64725e-07)
(2.54146e-06 -9.39848e-06 -7.86422e-06)
(2.83053e-06 -1.07562e-05 -1.34366e-05)
(-5.405e-08 -4.55121e-07 -1.55777e-05)
(-2.84202e-06 2.95616e-06 -1.1433e-05)
(-2.43716e-06 -1.34995e-06 -1.48046e-06)
(-6.01214e-07 -7.11887e-07 7.23537e-06)
(9.14168e-07 -2.27163e-06 1.24808e-05)
(1.74864e-06 -3.07785e-06 1.65195e-05)
(9.2739e-07 1.31601e-06 1.78428e-05)
(-5.5891e-07 -8.61922e-06 1.46548e-05)
(-7.6061e-07 -2.13511e-05 8.24378e-06)
(3.3643e-07 -2.96414e-05 -3.33592e-06)
(3.35237e-06 -5.01952e-05 -1.63516e-05)
(7.88114e-06 -8.38431e-05 -1.7837e-05)
(9.92944e-06 -9.82906e-05 -1.37393e-05)
(1.01062e-05 -0.000123237 -6.32738e-06)
(1.01096e-05 -0.000188663 -2.53238e-06)
(5.9683e-06 -0.000271408 -5.14515e-06)
(-4.04505e-06 -0.000309193 -1.1511e-05)
(-1.44253e-05 -0.000250939 -1.53491e-05)
(-1.67112e-05 -0.000133099 -8.73652e-06)
(-1.01087e-05 -4.79624e-05 5.95026e-06)
(-2.51403e-06 -1.94413e-05 1.55704e-05)
(2.09643e-06 -3.27514e-05 2.0329e-05)
(4.19031e-06 -6.69921e-05 2.44425e-05)
(1.36377e-06 -7.15926e-05 1.93202e-05)
(-4.36778e-06 -3.04629e-05 6.51337e-06)
(-4.64933e-06 -2.75767e-06 -4.30487e-06)
(-1.20606e-06 5.5361e-06 2.46974e-06)
(1.29706e-06 8.66918e-06 4.5933e-06)
(3.16236e-06 -1.28938e-05 -1.24542e-05)
(1.01897e-06 -1.94905e-06 -1.66503e-05)
(-8.79624e-07 -1.15748e-05 -3.94352e-06)
(-1.48609e-06 -3.33902e-06 -3.87051e-07)
(-2.42975e-07 -1.06487e-08 -4.95616e-07)
(4.62113e-07 3.50536e-06 -1.75592e-06)
(7.56838e-07 6.39799e-06 -1.60555e-06)
(1.65356e-07 1.43128e-05 -1.40062e-06)
(-7.8573e-07 1.79693e-05 8.33325e-08)
(-5.6609e-07 9.17763e-06 5.90741e-07)
(9.08815e-07 -4.59496e-06 -2.98447e-06)
(2.17219e-06 -2.09483e-05 -6.8494e-06)
(4.84115e-07 -2.02685e-05 -8.49245e-06)
(-2.07389e-06 -1.01328e-05 -5.59816e-06)
(-1.39823e-06 -6.52993e-06 6.76943e-07)
(-1.1784e-07 1.92801e-06 4.00233e-06)
(2.25129e-07 1.66893e-06 4.63748e-06)
(1.20737e-06 -8.43506e-06 6.92684e-06)
(3.48072e-07 -6.80767e-06 7.98177e-06)
(-1.24408e-06 -1.2632e-05 4.908e-06)
(-4.34441e-07 -8.1129e-06 -7.0485e-08)
(5.32537e-08 1.63107e-05 -7.21565e-06)
(3.37261e-07 5.72429e-06 -1.2915e-05)
(3.87896e-06 -3.67966e-05 -7.22701e-06)
(6.21482e-06 -5.81205e-05 -6.23598e-06)
(4.11939e-06 -7.04211e-05 -4.0626e-06)
(1.52205e-06 -0.00011212 2.18221e-06)
(-8.639e-07 -0.00016286 2.16127e-06)
(-3.73728e-06 -0.000182192 -1.59285e-06)
(-5.79071e-06 -0.000150204 -4.1229e-06)
(-4.54392e-06 -8.68687e-05 -2.57525e-06)
(-6.86895e-07 -3.10881e-05 5.47228e-07)
(7.9405e-07 5.48054e-06 -1.76801e-06)
(-6.0814e-07 1.62735e-05 -5.37798e-06)
(-7.10258e-07 -4.9631e-06 -1.60626e-06)
(2.25855e-07 -3.41364e-05 2.51924e-06)
(-1.01791e-07 -3.36301e-05 5.04902e-07)
(7.1923e-07 -5.28531e-06 1.67573e-07)
(1.34375e-06 1.90919e-05 1.19234e-05)
(-1.0481e-06 3.11439e-05 2.23796e-05)
(-1.00655e-07 5.12091e-07 5.33122e-06)
(1.48202e-06 -2.47153e-05 -6.16336e-06)
(2.35109e-07 -7.837e-06 -2.34387e-06)
(-8.26976e-07 2.01082e-06 2.80477e-08)
(2.9308e-07 3.59289e-07 -2.16017e-06)
(1.08242e-06 8.40955e-07 -6.39658e-06)
(1.52399e-06 2.86767e-06 -6.81663e-06)
(1.22991e-06 7.80515e-06 -6.62401e-06)
(-6.75395e-07 1.75115e-05 -5.42231e-06)
(-2.00327e-06 2.0758e-05 -1.44913e-06)
(-1.38049e-06 1.36708e-05 -1.24115e-07)
(7.70226e-07 -2.85512e-06 -3.03987e-06)
(1.35895e-06 -1.52044e-05 -6.24261e-06)
(-1.05591e-06 -2.23862e-06 -5.7016e-06)
(-9.07022e-07 2.73991e-06 -2.91735e-07)
(4.62104e-07 -2.48594e-08 2.70501e-06)
(-4.21724e-07 1.49532e-06 2.18543e-07)
(6.5361e-07 1.04759e-07 1.25118e-06)
(4.17535e-07 1.06265e-05 3.72063e-06)
(-6.65045e-07 6.53163e-06 2.65609e-06)
(3.13628e-06 2.49027e-06 3.03757e-07)
(2.24508e-06 4.9248e-05 -3.53998e-06)
(-3.5472e-06 6.48723e-05 -6.57028e-06)
(-3.7423e-07 6.39037e-06 3.41925e-06)
(5.74847e-06 -1.44075e-05 3.7362e-06)
(3.39407e-06 1.80835e-06 -3.55716e-06)
(-1.5532e-06 -1.93836e-05 3.55214e-06)
(-2.83905e-06 -4.19521e-05 4.79881e-06)
(-2.35819e-06 -4.04446e-05 1.0289e-06)
(-2.37575e-06 -2.20975e-05 -1.30356e-06)
(-1.797e-06 -2.74179e-07 -1.08147e-06)
(1.45526e-06 4.34868e-06 -5.59304e-08)
(3.5748e-06 -3.76567e-06 -5.6872e-06)
(9.58835e-07 4.00001e-06 -1.62504e-05)
(-2.14718e-06 1.98085e-05 -1.67583e-05)
(-2.41141e-06 2.53717e-05 -8.31166e-06)
(-8.9234e-07 2.06593e-05 -1.31541e-06)
(1.95359e-06 1.39645e-05 4.28447e-06)
(3.47674e-06 5.918e-06 2.10381e-05)
(-9.8283e-07 1.28269e-05 3.9277e-05)
(-4.08521e-06 1.79687e-05 2.52041e-05)
(-6.70635e-07 -6.92679e-06 1.43996e-06)
(3.44494e-07 -5.67685e-06 -9.3321e-07)
(-3.25808e-07 8.38016e-07 -4.41979e-07)
(-4.73999e-07 1.27345e-06 -5.09486e-07)
(7.7375e-07 -3.54105e-06 -4.90628e-06)
(1.7212e-06 -6.78937e-06 -7.25642e-06)
(2.25011e-06 -9.3906e-06 -7.81388e-06)
(1.14459e-06 -3.80273e-06 -8.41743e-06)
(-9.9266e-07 9.5355e-06 -4.51602e-06)
(-2.39338e-06 2.12463e-05 1.43818e-07)
(-2.01097e-06 2.24754e-05 -2.93906e-07)
(4.85715e-07 8.68892e-07 -2.71111e-06)
(5.10474e-07 -8.49593e-06 -2.80702e-06)
(-1.11735e-06 2.21195e-06 -2.04817e-07)
(-3.64625e-07 -2.50209e-06 4.67954e-06)
(3.11712e-07 -2.71626e-06 5.47658e-06)
(2.63372e-06 1.29428e-05 4.04892e-06)
(1.30432e-06 2.99843e-05 3.73615e-06)
(-2.5239e-06 1.99828e-05 1.93837e-06)
(5.5985e-06 -3.25635e-06 9.83373e-07)
(9.17744e-06 2.72182e-05 -1.52252e-07)
(-5.68428e-06 0.000102042 -2.45186e-06)
(-7.56438e-06 4.33364e-05 5.76675e-06)
(5.57634e-06 -1.1552e-05 8.99595e-06)
(3.44872e-06 -1.27402e-06 -3.89762e-06)
(-4.71884e-06 -1.76712e-05 3.40575e-06)
(-3.81612e-06 -2.03387e-05 5.2221e-06)
(-9.0404e-07 -1.19646e-05 1.39777e-06)
(-1.23265e-07 -2.84799e-06 2.2875e-07)
(-8.6452e-07 6.95104e-06 2.5488e-07)
(-1.43269e-06 1.15414e-05 4.75919e-07)
(4.531e-07 -3.0538e-06 -6.924e-08)
(2.7632e-06 -2.08143e-05 -6.75756e-06)
(2.64275e-06 -1.75197e-05 -1.47042e-05)
(6.27185e-07 6.54195e-06 -1.42293e-05)
(-1.72978e-06 3.28446e-05 -6.48857e-06)
(-1.61879e-06 3.21839e-05 1.94971e-06)
(9.5178e-07 2.79943e-06 1.56639e-05)
(7.5164e-07 -1.46848e-05 3.94135e-05)
(-2.64829e-06 1.77496e-06 4.08005e-05)
(-2.16305e-06 5.8087e-06 1.49189e-05)
(-5.98762e-07 2.95703e-08 8.22512e-06)
(2.71084e-07 -3.78532e-06 -3.39819e-07)
(-3.51905e-07 1.1052e-08 3.1066e-07)
(-2.19716e-07 -1.05486e-06 -1.31731e-06)
(5.35571e-07 -4.53326e-06 -3.39515e-06)
(1.61821e-06 -1.11119e-05 -4.6203e-06)
(2.26743e-06 -1.73121e-05 -7.3447e-06)
(2.03676e-06 -1.32449e-05 -5.78903e-06)
(8.65875e-07 3.40857e-06 9.78817e-07)
(-2.31297e-06 3.24317e-05 1.50426e-06)
(-3.67533e-06 4.16e-05 -1.83857e-07)
(-9.96286e-07 8.17762e-06 1.58281e-07)
(1.06634e-07 -3.03622e-06 2.05267e-06)
(-2.67557e-07 1.69124e-06 6.71933e-06)
(2.05785e-06 9.89769e-06 1.15399e-05)
(5.85912e-06 3.78553e-05 9.92515e-06)
(1.49041e-06 3.79213e-05 4.17581e-06)
(-5.97252e-06 1.93709e-05 4.13971e-07)
(4.07793e-06 3.95214e-07 6.0132e-07)
(1.89494e-05 -1.60546e-05 -1.30462e-06)
(-6.582e-07 7.76289e-05 2.04023e-06)
(-1.84245e-05 8.74706e-05 1.46475e-05)
(-1.6155e-06 -8.38025e-06 1.94318e-05)
(2.37582e-06 -3.27114e-05 -7.2957e-07)
(-4.37926e-06 -2.6062e-05 5.14755e-07)
(-1.79333e-06 -1.01142e-05 3.834e-07)
(3.85095e-07 -8.9136e-07 -1.77205e-06)
(5.20445e-07 1.79383e-06 -2.24783e-07)
(4.87245e-07 2.00366e-06 1.82e-06)
(9.954e-08 8.84527e-06 3.2866e-06)
(-1.45512e-06 1.89932e-05 5.01002e-06)
(-1.6222e-06 1.53177e-05 5.91104e-06)
(1.8823e-06 -5.26872e-06 -2.66685e-07)
(5.60708e-06 -2.129e-05 -9.96963e-06)
(3.43766e-06 -1.59347e-06 -1.04049e-05)
(-2.64721e-06 3.10723e-05 -1.54505e-06)
(-4.01664e-06 2.51747e-05 9.25044e-06)
(-1.33242e-06 -2.47801e-06 2.65331e-05)
(-8.4326e-07 -8.0228e-06 4.00466e-05)
(-1.74878e-06 3.22539e-06 3.06377e-05)
(-8.38101e-07 3.66566e-06 2.53185e-05)
(-3.91156e-07 1.67974e-06 5.25966e-06)
(1.20491e-08 8.91589e-07 -3.94698e-08)
(4.68595e-08 6.62114e-07 6.86453e-07)
(7.3612e-09 -1.65888e-07 2.18e-06)
(-1.8366e-08 -2.23205e-07 2.77997e-06)
(6.38406e-07 -5.21203e-06 -5.76832e-07)
(2.47751e-06 -1.35486e-05 -3.96192e-06)
(5.61117e-06 -1.85116e-05 2.12092e-06)
(4.99611e-06 2.08721e-06 6.03472e-06)
(-3.51235e-06 6.03805e-05 1.03392e-06)
(-7.48598e-06 6.24192e-05 -1.91596e-06)
(-2.42917e-06 8.5409e-06 -3.06178e-06)
(1.9877e-06 1.82078e-06 6.25299e-06)
(6.73587e-06 2.79831e-05 1.43915e-05)
(7.41743e-06 5.07709e-05 9.20357e-06)
(-2.09122e-06 2.42465e-05 -1.07061e-06)
(-9.02008e-06 4.31015e-06 -3.70704e-06)
(-7.14155e-07 3.89162e-06 2.58646e-07)
(2.22698e-05 -3.57367e-05 -5.79697e-06)
(1.2703e-05 -1.66926e-05 -4.82747e-06)
(-2.21467e-05 8.77937e-05 2.2541e-05)
(-1.56285e-05 2.72661e-05 3.25001e-05)
(3.3051e-07 -2.8528e-05 4.36922e-06)
(-6.2667e-07 -1.53791e-05 -3.83297e-06)
(5.7134e-07 -2.38378e-06 -6.48537e-06)
(1.13714e-06 4.23841e-06 -5.4906e-06)
(3.3869e-07 4.46444e-06 -1.22972e-06)
(2.83105e-07 2.00706e-06 2.1207e-06)
(1.51142e-06 2.09497e-06 4.88317e-06)
(1.8334e-06 1.07099e-05 8.30578e-06)
(-1.21302e-06 2.71412e-05 1.22862e-05)
(-3.96475e-06 2.86769e-05 1.36516e-05)
(7.81495e-07 -1.0019e-06 4.86786e-06)
(7.29782e-06 -2.98183e-05 -6.23488e-06)
(3.37722e-06 -1.19605e-05 -3.63538e-06)
(-4.66044e-06 1.83973e-05 5.70502e-06)
(-5.09558e-06 1.48028e-05 1.5102e-05)
(-1.79395e-06 1.95672e-07 2.70019e-05)
(-7.35275e-07 -1.09272e-06 3.47855e-05)
(-1.495e-08 2.07039e-06 3.63133e-05)
(-2.19456e-07 8.07023e-06 2.2344e-05)
(-5.94855e-07 8.16648e-06 1.99724e-06)
(-4.60592e-07 2.41812e-06 -4.87312e-07)
(4.11915e-07 -3.02511e-07 4.50674e-06)
(7.70738e-07 2.15296e-06 1.07272e-05)
(-2.50031e-07 4.67632e-06 1.04946e-05)
(-6.90356e-07 2.55266e-06 2.81227e-06)
(3.52564e-06 -9.35431e-06 5.84437e-07)
(1.2834e-05 -2.81326e-05 1.03032e-05)
(8.47147e-06 8.91385e-06 6.80812e-06)
(-1.07741e-05 8.58352e-05 -6.8801e-06)
(-1.18476e-05 4.05682e-05 -1.19991e-05)
(3.41813e-06 -8.54617e-07 3.10215e-06)
(1.14412e-05 2.66498e-05 1.50185e-05)
(4.944e-06 2.74303e-05 2.9073e-06)
(-7.50487e-06 -2.96195e-06 -1.07977e-05)
(-9.75996e-06 -9.26459e-06 -9.37818e-06)
(-3.49857e-06 6.98686e-07 -7.36796e-07)
(1.44547e-05 -2.07457e-05 -5.31918e-06)
(2.28601e-05 -8.37784e-05 -1.73147e-05)
(-9.17545e-06 1.09123e-05 9.47122e-06)
(-2.36128e-05 6.27807e-05 3.37963e-05)
(-6.00968e-06 1.13579e-05 9.85519e-06)
(5.02183e-07 -2.99181e-06 -5.40825e-06)
(1.91634e-06 -5.59633e-07 -9.85434e-06)
(1.68771e-06 4.10268e-06 -7.00238e-06)
(8.9445e-08 3.15969e-06 -1.47674e-06)
(3.072e-08 1.66985e-06 2.28401e-06)
(1.70757e-06 1.96082e-06 5.29292e-06)
(3.25313e-06 4.32013e-06 9.26712e-06)
(1.95772e-06 1.12847e-05 1.38733e-05)
(-3.18472e-06 2.28333e-05 1.68268e-05)
(-5.68539e-06 2.07152e-05 1.36264e-05)
(8.2751e-07 -1.02571e-05 3.12556e-06)
(6.44829e-06 -3.33917e-05 -2.106e-06)
(1.44603e-06 -1.49129e-05 3.27354e-06)
(-4.61144e-06 8.63576e-06 8.61756e-06)
(-3.94931e-06 8.39098e-06 1.34049e-05)
(-1.15439e-06 1.0791e-06 2.38838e-05)
(6.32275e-07 -1.68648e-07 3.1685e-05)
(9.47665e-07 4.99204e-06 4.43264e-05)
(-1.18278e-06 6.78321e-06 1.3598e-05)
(-1.78518e-06 1.11392e-06 -2.29056e-06)
(-9.3648e-08 -7.05868e-08 5.57652e-06)
(1.00772e-06 -1.77135e-06 1.5385e-05)
(8.19588e-07 -2.37524e-06 1.49741e-05)
(-3.1605e-07 1.23291e-06 7.46258e-06)
(-1.00113e-06 3.53885e-06 -1.97163e-07)
(8.2479e-06 -1.60408e-05 5.15009e-06)
(2.06064e-05 -4.58615e-05 1.53447e-05)
(-1.0015e-07 2.12697e-05 -5.15793e-06)
(-2.07437e-05 6.28963e-05 -2.05857e-05)
(-1.25825e-06 1.3921e-06 -1.4808e-06)
(1.2542e-05 -3.35375e-06 1.30152e-05)
(1.0843e-06 -9.08123e-06 -2.98842e-06)
(-9.69541e-06 -1.50585e-05 -1.55695e-05)
(-8.12861e-06 -8.1464e-06 -1.07897e-05)
(-2.98013e-06 -1.9627e-06 -2.1697e-06)
(4.28132e-06 -3.99444e-06 -1.21232e-06)
(1.86938e-05 -6.41838e-05 -1.38192e-05)
(9.12254e-06 -6.73353e-05 -7.16783e-06)
(-1.47005e-05 4.01391e-05 2.24177e-05)
(-1.36485e-05 3.86529e-05 1.55731e-05)
(-3.39603e-06 5.28048e-06 -5.92545e-07)
(2.01054e-06 -1.29159e-06 -7.73193e-06)
(1.9077e-06 -5.01148e-07 -6.01911e-06)
(-1.76845e-07 -1.39857e-06 -9.77175e-07)
(4.2505e-08 -1.13213e-06 2.20354e-06)
(2.08085e-06 1.51431e-07 4.61548e-06)
(3.76098e-06 3.03706e-06 8.23474e-06)
(2.57779e-06 6.63569e-06 1.33842e-05)
(-1.94704e-06 8.35863e-06 1.7237e-05)
(-5.9112e-06 1.03605e-05 1.48309e-05)
(-4.07161e-06 4.88597e-06 6.35591e-06)
(2.02229e-06 -1.43729e-05 4.15485e-08)
(4.05857e-06 -2.30307e-05 1.69099e-06)
(4.028e-08 -1.00833e-05 4.85145e-06)
(-3.25187e-06 1.16961e-06 5.114e-06)
(-2.09837e-06 8.82416e-07 9.85939e-06)
(9.27375e-07 -2.58495e-06 1.93725e-05)
(1.36708e-06 -3.47468e-06 5.42452e-05)
(-1.48647e-06 -2.87721e-06 2.88818e-05)
(-2.00669e-06 -1.65233e-06 -2.98819e-06)
(-2.44359e-07 -2.11706e-08 6.72551e-06)
(1.80005e-07 -1.73479e-06 1.60748e-05)
(3.76915e-07 -3.70821e-06 1.23596e-05)
(7.23562e-07 -5.03509e-06 5.23469e-06)
(-2.47644e-07 -1.58232e-06 -3.17265e-07)
(1.17503e-06 6.87675e-07 -5.3364e-07)
(1.63769e-05 -3.53399e-05 1.16699e-05)
(1.48337e-05 -5.27698e-05 7.39114e-06)
(-1.58069e-05 3.21787e-05 -1.77204e-05)
(-1.23705e-05 1.86271e-05 -8.69833e-06)
(8.7542e-06 -2.65556e-05 7.95692e-06)
(2.46945e-06 -2.60621e-05 -2.03303e-06)
(-7.04783e-06 -1.07264e-05 -1.21994e-05)
(-6.71237e-06 -2.13325e-06 -8.03615e-06)
(-2.53248e-06 -8.96737e-07 -2.59014e-06)
(2.26378e-07 -5.11705e-08 1.12919e-07)
(7.73316e-06 -1.92938e-05 -5.08905e-07)
(1.45515e-05 -6.6454e-05 -2.46165e-06)
(1.49765e-06 -1.89564e-05 1.28637e-05)
(-1.37796e-05 1.79175e-05 1.87585e-05)
(-8.90535e-06 5.12394e-06 7.22812e-06)
(4.86325e-07 -2.22958e-06 -2.79501e-06)
(1.6386e-06 -6.43151e-06 -3.02462e-06)
(-3.791e-08 -6.15331e-06 5.19825e-08)
(4.1025e-07 -3.9795e-06 1.7545e-06)
(2.69297e-06 -2.77859e-06 3.03642e-06)
(4.79325e-06 -7.87606e-07 5.29239e-06)
(3.20058e-06 4.48542e-06 9.70118e-06)
(-2.39824e-06 8.611e-06 1.52608e-05)
(-6.51499e-06 5.75853e-06 1.52482e-05)
(-4.73957e-06 1.82848e-06 7.3489e-06)
(5.0135e-08 -1.01731e-06 4.21465e-07)
(2.22854e-06 -7.16606e-06 7.23e-07)
(8.5036e-07 -1.1348e-05 3.00297e-06)
(-1.32802e-06 -7.61921e-06 2.00784e-06)
(-1.38513e-06 -2.93581e-06 2.44023e-06)
(4.55526e-07 -2.34062e-06 8.08282e-06)
(8.24878e-07 -6.55339e-06 4.20013e-05)
(-6.57131e-07 -6.92394e-06 3.22352e-05)
(-9.87775e-07 -1.27912e-06 -3.54344e-06)
(-1.00361e-07 3.04185e-07 3.02716e-06)
(9.39154e-08 1.6922e-06 1.18523e-05)
(-2.93269e-08 2.94e-06 7.73991e-06)
(1.52456e-07 -2.9076e-07 2.10504e-06)
(4.72365e-07 -3.30451e-06 -3.30604e-07)
(-1.71156e-07 1.80416e-07 -2.21854e-07)
(6.55055e-06 -7.53277e-06 4.48594e-06)
(1.66571e-05 -5.14229e-05 1.04752e-05)
(-1.89705e-06 -1.90181e-05 -3.13541e-06)
(-1.60304e-05 2.70122e-05 -9.06292e-06)
(8.1785e-07 -1.58908e-05 4.1924e-06)
(5.23256e-06 -2.51435e-05 3.16457e-06)
(-3.482e-06 -1.10609e-05 -4.97393e-06)
(-5.61034e-06 -1.09172e-06 -4.83658e-06)
(-2.46205e-06 1.39829e-06 -2.00902e-06)
(-2.86051e-07 2.05812e-07 -4.98599e-07)
(1.82667e-06 -1.89716e-06 3.89273e-06)
(8.65044e-06 -2.60878e-05 8.1104e-06)
(6.49514e-06 -4.36732e-05 1.39024e-05)
(-7.10561e-06 -2.10055e-05 1.73811e-05)
(-8.28694e-06 -3.73308e-07 7.35248e-06)
(-9.6446e-07 -1.70428e-07 2.3187e-08)
(8.71726e-07 -6.40629e-06 2.81542e-08)
(4.7359e-07 -6.38734e-06 6.92017e-07)
(9.19375e-07 -4.09032e-06 1.09696e-06)
(2.88278e-06 -4.0408e-06 1.17181e-06)
(5.62344e-06 -6.09587e-06 9.72037e-07)
(5.06155e-06 -4.19338e-06 2.60675e-06)
(-1.555e-06 6.45626e-06 8.65593e-06)
(-7.68758e-06 1.13981e-05 1.38424e-05)
(-5.83953e-06 5.04901e-06 8.97119e-06)
(-2.11825e-07 -5.54982e-08 4.53566e-07)
(1.4474e-06 -1.28226e-06 -5.42363e-07)
(-1.6669e-07 -3.32153e-06 2.50114e-06)
(-1.17064e-06 -4.16194e-06 1.71658e-06)
(-8.07383e-07 -2.45934e-06 5.64356e-07)
(-2.48978e-07 -3.97851e-07 2.40239e-06)
(5.15942e-08 -2.50471e-06 1.64975e-05)
(6.00955e-09 -3.07574e-06 1.68579e-05)
(5.0885e-08 -4.16655e-07 -3.84904e-06)
(6.29999e-07 1.31509e-06 -2.46527e-06)
(9.77834e-07 4.67559e-06 3.06055e-06)
(-1.74405e-07 6.41687e-06 1.75571e-06)
(-1.08611e-06 3.55616e-06 1.59961e-07)
(-1.81368e-07 -6.60791e-07 6.43403e-08)
(4.92838e-08 -6.79421e-07 7.1275e-07)
(1.9523e-06 6.33277e-07 3.18944e-06)
(1.12069e-05 -2.11411e-05 8.13437e-06)
(6.22447e-06 -3.03986e-05 4.79329e-06)
(-1.10546e-05 1.6628e-05 -5.19551e-06)
(-6.03195e-06 4.82765e-06 1.2638e-06)
(3.62818e-06 -1.83941e-05 5.02284e-06)
(-2.194e-07 -1.26548e-05 -1.4529e-07)
(-3.09778e-06 2.85389e-07 -2.50459e-06)
(-2.15144e-06 5.12114e-06 -1.28891e-06)
(-7.06741e-07 1.83351e-06 -4.3918e-07)
(4.76728e-07 -7.73938e-08 3.32271e-06)
(2.66072e-06 -4.39013e-06 9.83117e-06)
(2.49997e-06 -2.56924e-05 1.3621e-05)
(-1.51288e-06 -2.35686e-05 9.65085e-06)
(-2.73367e-06 1.39003e-06 7.24463e-07)
(-1.16872e-06 6.26079e-06 -1.22712e-06)
(-1.42495e-07 -7.53762e-07 6.10952e-08)
(6.02152e-07 -2.7714e-06 5.33825e-07)
(1.05971e-06 -1.68026e-06 1.03261e-06)
(2.073e-06 -3.11475e-06 3.1026e-07)
(4.6614e-06 -8.64793e-06 -2.9277e-06)
(6.7642e-06 -1.41832e-05 -6.0371e-06)
(2.1807e-06 -6.14235e-06 -3.01592e-06)
(-6.81444e-06 1.19426e-05 6.83332e-06)
(-8.0534e-06 1.24917e-05 1.00181e-05)
(-1.8176e-06 1.52763e-06 1.93863e-06)
(1.33212e-06 -2.77849e-06 -2.53279e-06)
(9.4065e-08 -1.84687e-06 9.43762e-07)
(-1.0863e-06 -3.32609e-07 2.53092e-06)
(-8.99998e-07 3.94452e-07 8.22049e-07)
(-4.29127e-07 3.04194e-07 1.49437e-06)
(2.04651e-08 -3.99599e-08 2.66825e-06)
(-3.61484e-08 -1.66301e-07 1.56824e-06)
(3.54988e-07 2.52956e-07 -3.54845e-06)
(1.50613e-06 1.64861e-06 -5.09501e-06)
(1.68762e-06 2.0196e-06 -3.5546e-06)
(-3.8409e-07 1.35698e-06 -1.57193e-06)
(-2.0572e-06 1.39267e-06 -3.07568e-07)
(-8.59068e-07 3.37581e-07 2.05316e-07)
(2.33478e-07 -5.67209e-07 8.76495e-07)
(2.68008e-07 4.18837e-07 4.02428e-06)
(6.97093e-06 -6.15253e-06 8.98162e-06)
(9.73755e-06 -1.90895e-05 7.56782e-06)
(-4.90929e-06 6.13752e-06 -3.38342e-06)
(-1.00412e-05 1.46794e-05 -2.08082e-06)
(-3.76525e-07 -6.98393e-06 3.57306e-06)
(2.35039e-06 -6.622e-06 3.36075e-07)
(1.425e-09 4.641e-06 -2.26117e-06)
(-1.98285e-06 7.05499e-06 -4.9953e-07)
(-1.95981e-06 3.34678e-06 -3.11348e-08)
(-8.928e-08 -1.68439e-08 2.04402e-06)
(8.09871e-07 1.0577e-06 8.25821e-06)
(5.73945e-07 -4.57918e-07 9.13133e-06)
(1.26095e-06 2.00407e-06 3.73663e-06)
(9.91225e-07 7.4585e-06 -3.10365e-06)
(-1.65149e-06 3.62185e-06 -3.57913e-06)
(-2.00693e-06 1.95002e-07 -8.2026e-07)
(1.54159e-07 2.45343e-07 1.71737e-06)
(7.91375e-07 -3.11343e-07 3.80967e-06)
(6.64955e-07 -2.57285e-06 1.87979e-06)
(2.06665e-06 -7.05284e-06 -3.88206e-06)
(5.71256e-06 -1.47465e-05 -1.05389e-05)
(6.6883e-06 -1.68183e-05 -1.40608e-05)
(-1.62215e-06 1.70378e-06 -6.49477e-06)
(-9.05046e-06 1.67546e-05 6.24509e-06)
(-5.08989e-06 6.61464e-06 5.05566e-06)
(3.4454e-07 -2.36128e-06 -2.55378e-06)
(6.14281e-07 -2.13717e-06 -2.20022e-06)
(-4.38936e-07 -8.45236e-07 1.85121e-06)
(-8.19322e-07 2.78401e-07 2.29866e-06)
(-3.46371e-07 3.0097e-07 1.73788e-06)
(-1.16747e-07 2.95257e-07 4.96017e-07)
(1.17202e-07 6.37717e-07 -3.90235e-07)
(6.81149e-07 2.11034e-06 -1.67892e-06)
(1.18328e-06 2.15176e-06 -2.13563e-06)
(7.978e-07 -1.43751e-06 -1.38172e-06)
(-3.81255e-07 -4.34618e-06 -8.45842e-07)
(-1.35704e-06 -2.46775e-06 -4.59953e-07)
(-8.25712e-07 3.80263e-09 -1.40297e-07)
(5.97935e-08 -6.8897e-07 8.54052e-07)
(9.03805e-08 -6.4735e-07 5.87198e-06)
(4.53271e-06 2.37448e-07 1.25717e-05)
(1.03415e-05 -8.825e-06 1.07196e-05)
(6.2177e-07 -4.65481e-06 -2.12648e-06)
(-1.04007e-05 7.27643e-06 -4.22532e-06)
(-3.72396e-06 -3.45071e-07 1.826e-06)
(3.75302e-06 2.85539e-07 -1.1131e-06)
(1.568e-06 3.68082e-06 -3.18339e-06)
(-2.6409e-06 1.13551e-06 5.09985e-07)
(-3.15551e-06 7.82582e-07 8.17652e-07)
(-2.9926e-07 6.79107e-07 6.53372e-07)
(2.69202e-06 -1.07801e-06 7.29124e-06)
(3.04503e-06 1.81495e-06 8.80292e-06)
(1.08599e-06 4.93383e-06 1.81667e-06)
(-2.53042e-06 -1.41133e-07 -4.78393e-06)
(-3.76734e-06 -4.26933e-06 -5.34703e-06)
(-1.18023e-06 -1.11815e-06 4.11975e-07)
(4.64013e-07 -8.37029e-08 6.28106e-06)
(5.98715e-08 -1.31022e-06 6.39623e-06)
(-2.39206e-07 -1.94464e-06 2.40464e-06)
(4.91473e-07 -3.25178e-06 -2.38061e-06)
(3.31227e-06 -7.50563e-06 -8.35555e-06)
(7.71158e-06 -1.38577e-05 -1.66492e-05)
(4.88937e-06 -8.93555e-06 -1.89704e-05)
(-6.15907e-06 1.17623e-05 -4.98371e-06)
(-8.44878e-06 1.4221e-05 5.58968e-06)
(-1.75683e-06 1.41081e-06 1.4337e-07)
(5.92906e-07 -2.13349e-06 -3.84361e-06)
(-2.72632e-07 -1.37299e-06 -8.27535e-07)
(-4.89216e-07 -6.19645e-07 2.05682e-06)
(-6.945e-08 5.70773e-08 1.78558e-06)
(1.70257e-07 7.4115e-07 7.86219e-07)
(6.78543e-07 1.98829e-06 1.84282e-08)
(9.30562e-07 4.25824e-06 -6.38831e-07)
(1.1156e-07 4.36557e-06 -4.73333e-07)
(-8.35565e-07 6.70862e-07 7.788e-08)
(-7.99079e-07 -2.7716e-06 -1.12355e-07)
(-3.78922e-07 -2.24621e-06 -2.36732e-07)
(-1.46532e-07 -2.50873e-07 -1.40411e-07)
(-1.05943e-08 -2.13544e-07 -6.66067e-08)
(6.59352e-07 4.44258e-07 6.31266e-06)
(3.93237e-06 4.10561e-06 1.65294e-05)
(7.70561e-06 -7.63766e-08 1.41878e-05)
(9.9768e-07 -1.06724e-05 1.12243e-06)
(-8.26914e-06 -6.61869e-06 -2.76191e-06)
(-2.843e-06 -1.6426e-07 1.45282e-06)
(3.82528e-06 1.70061e-06 -8.32725e-08)
(1.80925e-07 -1.74579e-06 -1.14984e-06)
(-3.08114e-06 -4.26694e-06 1.37879e-06)
(-2.01939e-06 -2.3769e-06 1.07855e-06)
(-8.1641e-07 1.62066e-07 -1.78171e-07)
(1.07168e-06 -1.95922e-06 4.04245e-06)
(2.73731e-06 -6.05916e-06 8.34237e-06)
(4.91755e-07 -8.74145e-06 1.68864e-06)
(-2.34765e-06 -7.92933e-06 -8.24424e-06)
(-1.82511e-06 -3.00266e-06 -5.7077e-06)
(-4.07946e-07 5.80803e-07 4.23325e-06)
(4.46776e-08 5.65051e-06 6.27784e-06)
(1.18245e-07 9.32071e-06 2.09246e-06)
(-2.27017e-08 6.93762e-06 5.60173e-08)
(-8.2495e-09 2.19035e-06 -5.31956e-07)
(1.69261e-06 -1.84218e-06 -3.74842e-06)
(6.0065e-06 -7.4734e-06 -1.24711e-05)
(8.01448e-06 -1.31913e-05 -2.21469e-05)
(-2.96e-08 -2.84043e-06 -1.78486e-05)
(-8.90788e-06 1.42188e-05 -4.94753e-07)
(-6.02036e-06 9.72557e-06 4.16333e-06)
(-5.04038e-07 1.8758e-07 -1.16438e-06)
(1.53153e-07 -1.40482e-06 -1.82344e-06)
(-1.79786e-07 -6.95739e-07 8.78388e-07)
(2.63304e-07 -1.01914e-07 1.14848e-06)
(7.11514e-07 7.14389e-07 1.14861e-06)
(1.6216e-06 2.26901e-06 2.57805e-07)
(1.7115e-06 5.58419e-06 -2.09611e-06)
(-2.9937e-07 7.84761e-06 -4.25839e-06)
(-2.20374e-06 3.84595e-06 -2.85904e-06)
(-1.63396e-06 -4.44106e-07 -1.99038e-07)
(-3.38597e-07 1.25537e-07 -1.55721e-07)
(6.91085e-09 7.58041e-07 -2.23363e-07)
(3.75954e-07 4.32702e-08 1.16891e-07)
(1.95035e-06 1.19182e-06 5.34133e-06)
(4.36371e-06 5.53838e-06 1.82474e-05)
(4.04916e-06 4.18449e-06 1.76017e-05)
(-2.32406e-06 -8.06454e-06 4.11895e-06)
(-5.95308e-06 -8.8222e-06 -6.45401e-07)
(-1.1907e-07 5.21563e-07 3.0889e-06)
(3.04283e-06 1.26639e-06 4.20184e-06)
(-9.39435e-07 -1.60154e-06 2.02375e-06)
(-2.87561e-06 -2.06091e-06 6.36967e-07)
(-1.30561e-06 -1.5672e-06 2.13485e-07)
(-5.99935e-08 -6.16994e-07 -2.94912e-07)
(9.6084e-08 4.66628e-07 8.46256e-07)
(6.35675e-08 2.56841e-07 1.47783e-06)
(3.16746e-07 9.7177e-07 4.83135e-08)
(4.02e-10 2.30576e-06 7.0602e-07)
(-1.87841e-07 -3.20484e-07 3.61241e-06)
(2.58427e-06 4.34936e-06 7.17638e-07)
(4.39077e-06 1.62918e-05 -3.69418e-06)
(6.25685e-07 1.46182e-05 -2.91188e-07)
(-3.42977e-06 4.82776e-06 4.99594e-06)
(-3.35759e-06 1.1333e-06 3.4338e-06)
(-8.13285e-07 6.92188e-07 -1.6455e-09)
(2.84608e-06 -2.88797e-06 -3.80299e-06)
(6.62342e-06 -1.31555e-05 -1.2561e-05)
(5.38314e-06 -1.71832e-05 -1.87918e-05)
(-2.81794e-06 -7.6368e-07 -1.02749e-05)
(-7.5484e-06 1.34211e-05 2.72854e-06)
(-4.23855e-06 9.07042e-06 3.59425e-06)
(-7.09301e-07 2.00235e-06 -1.30567e-08)
(1.28193e-07 -3.56977e-07 -2.10787e-07)
(4.2144e-07 -2.0999e-07 -9.31451e-07)
(1.27685e-06 1.12711e-06 -1.4068e-06)
(2.96896e-06 6.02696e-06 -2.96156e-06)
(3.58543e-06 9.10566e-06 -6.56091e-06)
(-6.9827e-07 3.83114e-06 -7.94426e-06)
(-4.76007e-06 -1.78521e-06 -2.4498e-06)
(-2.53703e-06 -7.11349e-08 4.71531e-07)
(2.06465e-07 2.75127e-06 -3.59279e-06)
(-2.02808e-07 2.24131e-06 -3.60799e-06)
(1.62018e-07 1.78691e-07 -1.63929e-07)
(3.22032e-06 7.18865e-07 2.28143e-06)
(5.3553e-06 3.87739e-06 1.20396e-05)
(1.41386e-06 2.38077e-06 1.51455e-05)
(-5.03641e-06 -4.93159e-06 3.88173e-06)
(-4.29866e-06 -4.26597e-06 1.84803e-07)
(1.82201e-06 1.32494e-06 4.92344e-06)
(2.86527e-06 9.88198e-07 4.80722e-06)
(-1.33459e-06 -3.37704e-08 9.3885e-08)
(-3.08564e-06 1.92787e-08 -2.08153e-06)
(-1.38534e-06 -2.14654e-07 -3.75459e-07)
(1.02523e-07 -1.13195e-07 1.3678e-07)
(1.60152e-06 -2.20561e-07 -1.94823e-07)
(3.26262e-06 1.07038e-06 3.50956e-07)
(1.51478e-06 1.26441e-06 3.14453e-06)
(-3.22518e-06 -2.37105e-07 7.36729e-06)
(-9.9283e-07 4.40808e-06 2.19737e-06)
(7.42867e-06 8.24286e-06 -7.11505e-06)
(4.6297e-06 -1.21078e-06 -2.11817e-06)
(-5.5568e-06 -8.01949e-06 7.33725e-06)
(-6.28248e-06 -3.04662e-06 7.19382e-06)
(-1.68877e-06 -5.93863e-08 3.71175e-06)
(-1.9412e-08 1.94948e-08 1.44717e-06)
(-4.5678e-07 3.90705e-06 3.10007e-07)
(1.14802e-06 7.88789e-07 -8.87677e-07)
(5.48585e-06 -1.27074e-05 -6.51061e-06)
(5.46927e-06 -1.49771e-05 -1.10149e-05)
(-1.03875e-06 -9.94378e-07 -4.89162e-06)
(-5.71647e-06 8.58394e-06 2.74342e-06)
(-4.38083e-06 6.87065e-06 2.90468e-06)
(-1.24376e-06 2.19783e-06 2.22166e-07)
(-3.3274e-07 9.79328e-07 -1.00912e-06)
(4.02919e-06 -6.79472e-07 -1.14212e-05)
(5.8009e-06 1.35585e-06 -1.91521e-05)
(3.28255e-07 4.34916e-07 -1.40279e-05)
(-6.15371e-06 -5.99197e-06 -2.90827e-06)
(-4.05085e-06 -4.92497e-06 7.16656e-07)
(9.156e-07 -2.0255e-07 -3.40458e-06)
(8.56656e-07 7.2134e-08 -6.45498e-06)
(-1.36398e-06 -4.06187e-07 -4.84722e-06)
(-4.2601e-07 -2.76839e-08 -4.46261e-07)
(3.8208e-06 2.92954e-07 5.46533e-07)
(5.16044e-06 -1.19452e-07 2.23275e-07)
(-4.4598e-07 -2.76418e-06 1.87305e-06)
(-5.64069e-06 -4.543e-06 3.91057e-07)
(-2.73788e-06 -1.50772e-06 1.92286e-07)
(2.52375e-06 6.59692e-07 4.8873e-07)
(2.32572e-06 -1.08643e-06 -1.87116e-06)
(-1.42294e-06 -1.73262e-06 -4.06058e-06)
(-2.95172e-06 -4.33e-07 -3.63289e-06)
(-1.36904e-06 4.5213e-08 -1.02216e-06)
(-8.00625e-08 2.60639e-08 -1.188e-08)
(5.80526e-07 -2.07934e-07 -1.37108e-06)
(5.3535e-07 -2.52709e-06 -1.50892e-07)
(-5.15432e-07 -5.57392e-06 1.75034e-06)
(2.03708e-06 -3.80799e-06 -1.17914e-06)
(4.48634e-06 1.84674e-06 -3.4191e-06)
(-9.60405e-07 -2.92531e-06 2.20227e-06)
(-4.43762e-06 -1.30567e-05 3.16401e-06)