/*--------------------------------*- C++ -*----------------------------------*\
| =========                 |                                                 |
| \\      /  F ield         | OpenFOAM: The Open Source CFD Toolbox           |
|  \\    /   O peration     | Version:  5.0                                   |
|   \\  /    A nd           | Web:      www.OpenFOAM.org                      |
|    \\/     M anipulation  |                                                 |
\*---------------------------------------------------------------------------*/
FoamFile
{
    version     2.0;
    format      ascii;
    class       volVectorField;
    location    "50.4676134421789371";
    object      TGradp;
}
// * * * * * * * * * * * * * * * * * * * * * * * * * * * * * * * * * * * * * //

dimensions      [0 1 -2 1 0 0 0];

internalField   nonuniform List<vector> 
60000
(
(-0.000384349 0.000255887 -0.000585121)
(0.000424512 0.000150742 -0.00164291)
(0.00182348 -4.25068e-05 -0.0021211)
(0.00212528 -0.000115429 -0.000685942)
(0.00115768 -1.04328e-05 0.000173974)
(-0.000348037 -1.17392e-05 0.000499296)
(-0.00101615 0.000251467 0.000789427)
(-0.000633035 0.000118523 0.00196864)
(-0.000227474 -0.000453047 0.00237866)
(-0.000500222 0.000218377 0.000975196)
(-0.000594201 4.00236e-06 -0.000380938)
(-8.81161e-05 -6.62818e-06 -0.000194905)
(3.76206e-05 -4.01679e-05 -0.000303661)
(-0.000333222 6.35079e-05 -0.000884914)
(-0.000457712 7.31084e-05 -0.00156222)
(0.000452959 -0.000276338 -0.00148976)
(0.00245784 -0.000447161 -0.0010208)
(0.00296992 -0.000396684 -0.000514973)
(0.000853018 5.33533e-05 0.000532817)
(-0.00196287 0.000349051 0.002215)
(-0.00389083 0.000219347 0.0036443)
(-0.00419731 0.000142251 0.00248582)
(-0.0012968 -0.000390468 -0.000949136)
(0.00266279 -0.000728081 -0.00430485)
(0.00451478 -0.00120505 -0.00550791)
(0.00317 -0.00137519 -0.00404377)
(-0.000416986 -0.001135 -0.00145453)
(-0.00191045 -0.000619842 0.000166883)
(-0.000999963 -5.01464e-05 0.00102787)
(-0.000122398 0.000399479 0.00105072)
(-0.000662142 0.000511645 0.000801698)
(-0.00124664 0.000522857 0.000326556)
(-0.000815601 0.000462917 0.000533635)
(9.19168e-05 0.000501599 -0.000378291)
(0.00140136 0.000586449 0.000354676)
(0.00144759 0.000349445 0.00182474)
(-0.000455265 0.000765315 0.00220099)
(-0.00136235 0.000334442 0.00104136)
(-0.000823235 0.000358718 0.000269718)
(-0.000321757 -7.18578e-05 2.36983e-05)
(-0.000488403 0.000997304 -0.000728036)
(0.000519988 1.38635e-05 -0.00217483)
(0.00230276 -0.000985957 -0.00284283)
(0.00266094 -0.00118048 -0.00100981)
(0.00144027 -0.000533706 6.78386e-05)
(-0.000393991 -0.000484631 0.000502754)
(-0.00122727 0.00101682 0.000950338)
(-0.000880089 0.00032118 0.00247532)
(-0.000281019 -0.000260946 0.00312916)
(-0.000608877 0.00121534 0.00134384)
(-0.000851295 0.000149854 -0.000562665)
(-0.000128654 0.000111848 -0.00036925)
(6.16909e-05 -0.0003283 -0.000692568)
(-0.000435274 -0.00012974 -0.00140978)
(-0.000652248 5.88813e-05 -0.00228407)
(0.0005303 -0.000401628 -0.00227424)
(0.00332741 -0.000745533 -0.00166254)
(0.00429547 -0.00147638 -0.000995243)
(0.00137685 1.53471e-05 0.000652166)
(-0.00298197 0.00119585 0.00330608)
(-0.00617984 0.000191136 0.00579673)
(-0.00689156 -0.000164772 0.0041425)
(-0.00227759 -0.00105904 -0.00137795)
(0.00430989 -0.00158073 -0.00697762)
(0.00751677 -0.003905 -0.00909571)
(0.00540541 -0.00447832 -0.00658571)
(-0.000565891 -0.00348802 -0.00215076)
(-0.00300323 -0.00156156 0.000572954)
(-0.0014663 -0.000488158 0.00186048)
(-0.000102032 -0.000601215 0.00163623)
(-0.00104181 -0.000499454 0.00101662)
(-0.00202118 0.00100666 0.000281183)
(-0.00131406 0.00232036 0.000705334)
(0.000154763 0.0027491 -0.000741436)
(0.00207064 0.00111883 0.000486838)
(0.00211678 -0.000767748 0.00275104)
(-0.000641045 -0.000127566 0.00333774)
(-0.00194147 0.000439373 0.00173898)
(-0.00118149 0.00107757 0.000545545)
(-0.000454301 0.000636886 0.00015643)
(-0.000249653 0.000706151 -0.000275301)
(0.000145814 -0.000147646 -0.000871756)
(0.000928752 -0.000830122 -0.00118308)
(0.0010916 -0.000839639 -0.000382202)
(0.000569261 -0.000518105 7.01679e-05)
(-9.45681e-05 -0.000290224 0.000172696)
(-0.000415004 0.000294655 0.000304408)
(-0.000336879 0.000136192 0.000863383)
(-7.53101e-05 0.000234956 0.00115749)
(-0.000246441 0.000573792 0.000477433)
(-0.000393485 0.00036747 -0.000317219)
(-7.63514e-05 0.000119631 -0.000193805)
(1.02061e-05 -0.000269477 -0.000294602)
(-0.000170642 -0.000183093 -0.000577487)
(-0.000248229 -6.66004e-05 -0.000902222)
(0.000196004 -9.89168e-05 -0.000918479)
(0.0012445 -1.2082e-05 -0.000691063)
(0.00178067 -0.00040048 -0.000553366)
(0.000696974 0.000195107 0.000178185)
(-0.00139408 0.00106825 0.00138935)
(-0.00295384 0.000128678 0.00260223)
(-0.00326203 -0.000574633 0.0018708)
(-0.00108326 -0.000879633 -0.000629885)
(0.00200223 -0.000356245 -0.00322116)
(0.00354073 -0.0018232 -0.00421526)
(0.00264335 -0.00193321 -0.0029527)
(-0.000186713 -0.00141167 -0.000863919)
(-0.0014746 -0.000213136 0.000364797)
(-0.000820849 0.000226248 0.000911893)
(-0.000113024 -0.000658802 0.000839825)
(-0.000463972 -0.00103031 0.00059175)
(-0.000858754 6.77702e-05 0.000268182)
(-0.000548303 0.00106496 0.000325494)
(2.38675e-06 0.0011664 -0.000400096)
(0.000826093 0.00064918 0.000196837)
(0.000920719 -0.000758106 0.00114077)
(-0.000228939 -0.00104401 0.00132859)
(-0.00073976 -0.000162447 0.000693965)
(-0.000447978 0.000465541 0.000269115)
(-0.000184993 0.000861136 0.000112455)
(-6.22223e-05 0.000150555 -5.71803e-05)
(7.19381e-06 -3.21996e-05 -0.000169617)
(0.000171438 -0.000149662 -0.000238158)
(0.000197225 -0.000110584 -6.56518e-05)
(9.03277e-05 -7.0831e-05 2.01701e-05)
(-6.78592e-06 -2.72145e-05 2.77602e-05)
(-5.1336e-05 4.18925e-06 4.50647e-05)
(-5.00187e-05 1.21948e-05 0.000128133)
(-9.8125e-06 2.84337e-05 0.000185648)
(-3.85589e-05 3.74083e-05 7.90313e-05)
(-7.63146e-05 0.000112633 -9.05188e-05)
(-2.60891e-05 1.78418e-05 -5.29459e-05)
(-1.88908e-06 -6.6715e-05 -5.81512e-05)
(-2.44819e-05 -1.81856e-05 -8.16066e-05)
(-2.86031e-05 -2.91022e-06 -9.83511e-05)
(1.94084e-05 -1.91643e-05 -8.51413e-05)
(0.00014879 3.54843e-07 -7.76991e-05)
(0.00033763 1.16299e-05 -0.000118166)
(0.000211203 0.000134385 4.16475e-05)
(-0.000423731 0.000565013 0.000404963)
(-0.000835907 0.000262895 0.000694345)
(-0.000723395 -0.000162837 0.000407674)
(-0.000182751 -0.000308823 -0.00011656)
(0.000298047 -5.33484e-05 -0.000471248)
(0.000502528 -0.00027975 -0.000597589)
(0.000403058 -0.000267567 -0.000417423)
(-1.07655e-05 -0.00022837 -0.000110703)
(-0.000279677 2.2429e-05 9.4301e-05)
(-0.000221887 0.000368886 0.00022461)
(-6.38886e-05 0.000267934 0.000234606)
(-0.00013594 -3.41865e-06 0.000191667)
(-0.000199359 5.63597e-05 0.000102611)
(-0.000112906 0.00011723 6.99208e-05)
(6.30639e-06 6.86313e-05 -5.11168e-05)
(0.000173109 0.000167795 4.31632e-05)
(0.000193789 -4.37145e-05 0.000248104)
(-5.47145e-05 -0.000149093 0.000264459)
(-0.000128149 -1.73264e-05 0.00011097)
(-6.28463e-05 7.88841e-05 4.17007e-05)
(-2.89404e-05 0.000183642 2.59904e-05)
(-6.14214e-06 8.09839e-06 -5.10292e-06)
(-5.31221e-07 -3.99551e-06 -8.31712e-06)
(-1.27929e-06 1.07616e-06 2.02845e-06)
(-1.32507e-05 3.57328e-06 4.75082e-06)
(-1.56691e-05 3.70968e-07 -4.0034e-06)
(1.37169e-06 4.16088e-06 -9.6882e-06)
(1.20448e-05 -2.07592e-06 -1.2506e-05)
(2.48591e-06 -5.07771e-07 -6.64456e-06)
(-5.46414e-07 1.32943e-07 1.04461e-05)
(-3.43423e-06 3.90613e-06 6.84236e-06)
(-1.17737e-05 2.2579e-05 -2.02159e-05)
(-5.79309e-06 1.07813e-06 -1.09288e-05)
(2.34169e-08 8.3296e-07 5.05831e-07)
(5.8524e-06 3.5214e-06 2.40659e-05)
(2.12542e-05 -1.97705e-05 6.38584e-05)
(-1.75779e-05 -3.8251e-06 7.6381e-05)
(-7.13056e-05 1.05284e-05 3.20093e-05)
(2.75179e-05 -7.31036e-06 -9.63584e-06)
(0.000100213 2.18089e-05 2.00213e-05)
(-0.000225307 0.000332898 0.000225315)
(-0.000427646 0.000239929 0.000344748)
(-9.57458e-05 -1.05047e-05 5.5781e-05)
(5.9237e-05 0.000135656 4.02323e-05)
(-0.000177834 6.17974e-05 0.000276534)
(-0.000248777 0.000146299 0.000304479)
(-0.00011632 8.20821e-05 0.000117208)
(-1.60309e-06 4.29517e-05 1.31895e-05)
(-2.26035e-07 -3.75686e-08 1.18152e-07)
(-3.7416e-05 9.14621e-05 4.57578e-05)
(-2.71748e-05 0.000204397 7.30284e-05)
(-4.74872e-05 0.000125745 6.26051e-05)
(-3.73908e-05 4.39966e-05 2.33305e-05)
(-2.91379e-06 3.05018e-06 1.71288e-06)
(-4.03754e-07 -1.69332e-06 2.42707e-06)
(1.90402e-06 4.40429e-07 5.10549e-07)
(2.54012e-05 -1.08273e-05 3.10794e-05)
(-7.68631e-06 -4.60606e-06 3.55626e-05)
(-2.96483e-06 1.70601e-06 2.39805e-06)
(2.5826e-06 -4.35269e-06 -1.50481e-06)
(-8.89768e-07 5.11938e-06 1.13272e-06)
(4.15589e-06 -2.54618e-06 1.84804e-06)
(1.44155e-06 4.92765e-06 9.45004e-06)
(-1.60371e-05 7.30015e-06 2.96383e-05)
(-2.87046e-05 4.53958e-06 1.17394e-05)
(-1.8558e-05 -9.94754e-06 -5.20147e-06)
(1.65349e-06 -2.85083e-06 -1.14455e-05)
(1.38378e-05 -6.89431e-06 -1.75147e-05)
(8.53083e-06 -2.0473e-06 -2.18633e-05)
(4.75882e-07 3.47085e-06 -1.36775e-05)
(7.29763e-07 -2.73259e-06 -2.17699e-06)
(-1.29714e-06 3.49895e-06 -1.86037e-06)
(-3.051e-06 1.73395e-06 -4.326e-06)
(1.98135e-07 1.19746e-05 3.12087e-06)
(1.54786e-06 1.98916e-05 1.95362e-05)
(1.67586e-05 -3.99373e-05 5.41362e-05)
(-1.13326e-05 -2.70061e-05 6.4998e-05)
(-7.29059e-05 1.98402e-05 3.13026e-05)
(-4.59003e-05 3.07228e-05 1.23807e-05)
(5.94121e-05 -2.87359e-05 1.0116e-05)
(-0.000148324 0.000163081 0.000161476)
(-0.00039475 0.000259953 0.000308164)
(-3.99875e-05 5.04214e-06 2.35408e-05)
(9.88483e-05 -3.58042e-06 6.27905e-05)
(-0.000241731 0.000353137 0.000371897)
(-0.000274553 0.000172104 0.000352439)
(-9.6477e-05 7.95241e-05 0.000100883)
(-2.4163e-06 2.66491e-05 7.02205e-06)
(1.29963e-05 7.22612e-06 -1.05486e-05)
(1.73156e-06 -5.16325e-06 -3.76166e-06)
(-7.29142e-06 7.54707e-05 2.90003e-05)
(-2.71727e-05 0.000108246 3.97225e-05)
(-1.81614e-05 3.85014e-05 1.14621e-05)
(9.28498e-06 -1.47898e-05 -4.06798e-06)
(8.97896e-07 -1.65799e-06 4.95103e-06)
(-2.23416e-05 8.3316e-06 -4.58228e-06)
(-6.64221e-06 6.89975e-06 -7.30203e-06)
(2.62247e-08 3.66347e-08 -1.81881e-07)
(9.98123e-06 -1.31293e-05 -7.838e-06)
(8.91456e-06 -2.26427e-05 -4.09556e-06)
(3.30742e-06 -1.63479e-05 -4.5606e-06)
(4.42353e-06 -3.53616e-06 1.49745e-07)
(9.95703e-07 2.55491e-06 5.91533e-06)
(-7.9761e-06 8.3261e-06 1.6642e-05)
(-1.35799e-05 1.07955e-06 7.39171e-06)
(-7.90374e-06 -5.02955e-06 -2.3759e-06)
(8.79828e-07 -4.7275e-06 -5.5848e-06)
(7.38844e-06 -6.81386e-06 -1.06136e-05)
(6.32186e-06 -2.22612e-06 -1.42498e-05)
(4.79586e-08 2.31821e-06 -1.16683e-05)
(-1.1907e-07 -1.48729e-06 -1.99833e-06)
(1.82032e-07 -6.02397e-07 2.39605e-07)
(-3.10322e-06 2.87577e-06 -2.92123e-06)
(-8.4241e-08 -1.51544e-06 -3.50025e-07)
(-3.36098e-06 2.01247e-05 5.89856e-06)
(4.36735e-06 -1.29396e-05 1.96498e-05)
(-2.35722e-06 -1.65812e-05 2.91099e-05)
(-3.58439e-05 8.737e-06 1.5902e-05)
(-5.51487e-05 4.24131e-05 9.13205e-06)
(1.91973e-05 -2.02444e-05 2.3802e-06)
(-7.87196e-05 2.95358e-05 9.999e-05)
(-0.000347685 0.00023552 0.000262328)
(-6.68583e-05 2.76324e-05 4.11154e-05)
(0.000121311 -0.000130005 3.57146e-07)
(-0.000149956 0.000349875 0.00022418)
(-0.000172623 0.000126543 0.000214402)
(-4.47985e-05 3.87996e-05 5.0201e-05)
(-3.8776e-07 1.891e-06 7.81819e-07)
(-3.10212e-07 -1.1609e-07 3.80785e-07)
(1.75536e-06 -7.79214e-06 -8.45019e-06)
(1.42191e-07 -2.60854e-06 -1.68987e-06)
(-8.20549e-06 3.30181e-05 1.44569e-05)
(-1.66029e-05 3.97249e-05 1.19387e-05)
(-1.82817e-06 3.66117e-06 3.13756e-07)
(2.42779e-06 -6.54131e-06 1.95053e-06)
(-1.14888e-05 5.6333e-06 -8.21502e-07)
(-8.72934e-06 1.09353e-05 -8.25005e-06)
(-1.05266e-07 2.07448e-06 -3.9486e-06)
(3.73738e-06 -6.31652e-06 -3.5931e-06)
(4.67627e-06 -1.56996e-05 -1.56738e-06)
(3.01209e-06 -1.41521e-05 -3.37536e-06)
(2.76081e-06 -3.35488e-06 -5.19512e-07)
(1.18557e-06 8.73443e-07 2.76292e-06)
(-3.11958e-06 6.13439e-06 6.52691e-06)
(-5.14539e-06 1.94307e-06 3.21875e-06)
(-1.81652e-06 -7.75646e-07 -5.04674e-07)
(1.24798e-07 -8.80583e-07 -9.38261e-07)
(1.9253e-06 -2.10651e-06 -3.0358e-06)
(2.54173e-06 -2.07048e-06 -5.16682e-06)
(7.75878e-08 -5.40611e-07 -4.8072e-06)
(-3.01818e-07 1.10201e-07 -9.41618e-07)
(-2.64204e-07 8.88607e-07 -4.07205e-07)
(-3.16412e-06 3.9906e-06 -3.10665e-06)
(-5.77331e-07 -6.19401e-07 -1.43123e-06)
(-2.14964e-06 1.03414e-05 1.75548e-06)
(-8.51217e-07 3.98333e-06 5.26425e-06)
(-4.27916e-07 -5.54618e-06 8.33266e-06)
(-8.67505e-06 -9.77797e-07 4.07806e-06)
(-3.5854e-05 3.30659e-05 2.05495e-06)
(-1.28301e-05 2.05309e-05 -1.59944e-06)
(-2.46096e-05 -3.3407e-05 4.76954e-05)
(-0.000241728 0.000166357 0.000177385)
(-6.11451e-05 4.09247e-05 3.64922e-05)
(0.000108716 -6.43138e-05 -3.2762e-05)
(-7.02887e-05 0.000112847 0.000106975)
(-8.30341e-05 1.73942e-05 0.000105649)
(-1.94984e-05 1.36219e-05 2.27123e-05)
(-1.49317e-06 2.09221e-06 2.54602e-06)
(-1.76989e-07 1.9357e-07 3.37405e-07)
(-9.51099e-08 7.0592e-07 1.02267e-06)
(1.38314e-08 -1.87002e-06 -2.45912e-06)
(2.2186e-07 -6.61583e-07 -5.33967e-07)
(-4.19429e-06 7.96344e-06 2.88154e-06)
(-5.06568e-06 8.91124e-06 3.6334e-07)
(-2.3144e-07 5.31941e-07 -2.07801e-07)
(-2.02319e-06 6.01982e-08 2.00591e-07)
(-3.66822e-06 3.51792e-06 -3.07099e-06)
(-5.58369e-07 1.65879e-06 -2.68857e-06)
(8.74645e-07 -8.7276e-07 -1.46609e-06)
(1.13101e-06 -4.33232e-06 -4.938e-07)
(1.29594e-06 -5.76582e-06 -1.11154e-06)
(8.62643e-07 -1.19896e-06 -2.49375e-07)
(6.71038e-07 -3.3015e-07 8.18601e-07)
(-8.11935e-07 1.59584e-06 2.01335e-06)
(-1.65524e-06 1.22717e-06 1.05043e-06)
(-3.39403e-07 6.25008e-09 -8.64314e-08)
(3.6732e-10 -3.23277e-09 -7.84112e-09)
(8.9594e-09 -5.27795e-09 -1.44222e-08)
(3.80344e-07 -3.85459e-07 -7.07589e-07)
(1.13127e-07 -5.605e-07 -1.38143e-06)
(-8.44961e-08 2.14153e-08 -2.0781e-07)
(-1.61796e-07 4.00513e-07 -3.84514e-07)
(-2.12268e-06 3.44396e-06 -2.9254e-06)
(-9.88915e-07 1.64048e-07 -1.75897e-06)
(-5.2503e-07 4.89342e-06 7.46578e-07)
(-1.7883e-06 5.01641e-06 7.58906e-07)
(-5.12311e-07 -2.32679e-06 2.03362e-06)
(2.12902e-07 7.9671e-08 -8.41301e-08)
(-1.20488e-05 1.65166e-05 1.25392e-08)
(-2.02666e-05 4.21214e-05 -2.8671e-06)
(2.09479e-07 -2.98535e-05 1.41402e-05)
(-0.000121469 8.94452e-05 8.99682e-05)
(-4.01353e-05 3.46263e-05 2.29084e-05)
(7.62322e-05 -6.15224e-05 -3.31713e-05)
(-3.525e-05 2.32628e-05 4.42033e-05)
(-3.95674e-05 -2.01071e-05 5.35956e-05)
(-7.45311e-06 3.84025e-06 1.04301e-05)
(-4.37277e-07 -1.55518e-07 6.52075e-07)
(7.06521e-08 -2.82408e-07 -1.86538e-07)
(-2.46052e-08 1.45651e-07 2.86423e-07)
(6.60521e-10 8.46694e-08 2.92076e-07)
(1.57882e-07 -2.41322e-07 -5.02847e-07)
(2.19829e-07 -2.73971e-07 -1.61589e-07)
(-7.50457e-07 9.18369e-07 7.5501e-09)
(-6.85793e-07 8.62521e-07 -5.79924e-07)
(1.00907e-07 4.92992e-09 -6.37899e-08)
(-6.68983e-07 4.33311e-07 -4.21214e-07)
(-2.74045e-07 3.18334e-07 -9.77484e-07)
(1.8212e-07 -1.11493e-07 -5.47462e-07)
(1.28597e-07 -6.83637e-07 -1.98045e-07)
(2.92377e-07 -1.36735e-06 -3.73087e-07)
(3.27242e-07 -4.37533e-07 -6.52518e-08)
(3.81327e-07 -3.2955e-07 3.1521e-07)
(-1.5804e-07 2.89688e-07 5.81517e-07)
(-4.58931e-07 3.56702e-07 3.06911e-07)
(-4.10039e-07 1.20151e-07 -1.07612e-07)
(-5.3668e-11 -4.36392e-09 -8.71507e-09)
(-4.35505e-10 6.40015e-11 7.75341e-10)
(1.01267e-09 -5.81549e-10 -1.83272e-09)
(5.25685e-08 -2.53109e-07 -3.70088e-07)
(-6.0417e-08 -8.07004e-08 -2.06638e-07)
(-2.17403e-08 1.88771e-08 -1.19158e-07)
(-1.37742e-06 1.56537e-06 -1.6525e-06)
(-6.94917e-07 2.74212e-08 -1.1958e-06)
(-1.96375e-07 1.17615e-06 3.91142e-07)
(-1.47725e-06 2.04654e-06 -2.11654e-07)
(-3.99762e-07 -1.07473e-06 3.4202e-07)
(4.75884e-07 -1.2106e-07 1.19556e-08)
(-1.0111e-06 2.3372e-06 -1.86522e-07)
(-1.09893e-05 2.51002e-05 -1.87094e-06)
(2.05137e-06 -7.08414e-06 1.55574e-06)
(-4.06743e-05 3.13653e-05 3.1743e-05)
(-2.30115e-05 2.21206e-05 1.22336e-05)
(4.23871e-05 -4.14082e-05 -2.17962e-05)
(-1.52841e-05 -6.43915e-07 1.69008e-05)
(-1.63662e-05 -4.04188e-06 2.40389e-05)
(-2.91375e-06 9.75341e-07 4.70195e-06)
(-2.98592e-07 -2.75108e-07 3.80493e-07)
(1.55689e-10 -4.65558e-10 -3.14666e-10)
(4.32958e-08 -7.08429e-08 -2.89868e-07)
(-1.27334e-10 -2.54265e-12 6.71811e-09)
(-4.00216e-09 2.33976e-09 1.66588e-08)
(8.0802e-09 -7.82005e-09 -6.77532e-09)
(2.6043e-07 -2.58707e-07 -6.51396e-09)
(-3.53215e-09 1.9434e-09 -2.82641e-09)
(7.02253e-08 -6.841e-08 -1.09982e-07)
(2.15481e-08 -1.54945e-08 6.29469e-09)
(-8.22503e-08 3.66633e-08 -1.76892e-07)
(2.86029e-08 -7.26868e-08 -1.56029e-07)
(1.93832e-08 -2.11078e-07 -1.33166e-07)
(5.19253e-08 -2.67146e-07 -1.36959e-07)
(4.87201e-09 -5.50352e-09 -2.72146e-09)
(3.0292e-08 -2.52061e-08 1.10736e-08)
(-8.74745e-09 1.27843e-08 7.05622e-08)
(-3.27478e-08 2.10347e-08 2.44754e-08)
(-5.92268e-09 1.85652e-09 -5.24842e-10)
(-5.4517e-11 -2.29347e-10 -5.14566e-10)
(-2.43624e-09 9.84443e-10 4.3501e-09)
(-3.19677e-09 -1.35614e-09 5.69186e-09)
(1.61751e-09 -9.10003e-09 -1.21492e-08)
(-1.85108e-09 -8.54432e-09 -1.19828e-08)
(1.48011e-10 -3.28339e-10 -2.50327e-09)
(-2.80481e-07 1.34567e-07 -3.43375e-07)
(-3.84355e-07 3.10451e-07 -5.08129e-07)
(6.38319e-09 4.70019e-08 1.36638e-07)
(-8.12747e-07 6.15024e-07 -1.55564e-07)
(-2.34604e-07 -2.54824e-07 -6.51965e-08)
(4.22789e-09 -9.97579e-08 1.19193e-07)
(3.3709e-07 -1.17519e-06 2.28053e-07)
(-2.63751e-06 5.50173e-06 -6.66048e-07)
(-4.78557e-07 8.95904e-07 -5.71925e-08)
(-7.98941e-06 6.12639e-06 6.99989e-06)
(-1.04202e-05 9.86651e-06 4.78992e-06)
(1.7626e-05 -1.7552e-05 -8.89911e-06)
(-3.5341e-06 -4.16785e-06 4.72468e-06)
(-5.15964e-06 8.86231e-08 6.99625e-06)
(-6.96069e-07 -4.23805e-08 1.08976e-06)
(-2.86191e-07 -1.72854e-07 2.83826e-07)
(3.52555e-09 -4.85334e-10 -4.86217e-09)
(-2.8412e-10 1.24476e-11 1.30079e-09)
(2.1364e-11 1.43763e-10 -9.6036e-10)
(-1.73956e-10 3.08923e-11 1.11279e-09)
(-3.80398e-10 3.92546e-10 4.07955e-10)
(-3.95641e-10 3.02906e-10 1.09483e-11)
(1.08193e-09 -4.13094e-10 6.1597e-10)
(3.95374e-11 -1.01725e-10 -1.48918e-10)
(2.77232e-10 -2.25499e-10 -1.97752e-11)
(2.80101e-10 -1.23575e-10 3.38974e-10)
(2.16016e-10 -2.43104e-09 -5.49281e-09)
(1.44378e-10 -3.9213e-09 -3.92912e-09)
(-3.06113e-10 1.99095e-09 2.28931e-09)
(1.21487e-09 -8.42639e-10 -8.50644e-10)
(5.40056e-09 -3.64445e-09 7.67503e-10)
(-4.18193e-11 -1.26968e-09 1.06592e-08)
(-1.77989e-09 5.89264e-10 1.49333e-09)
(-1.35951e-10 3.00069e-11 -1.11435e-11)
(-1.11312e-12 -1.34129e-12 -5.05204e-12)
(8.11986e-12 1.93168e-12 -1.28956e-11)
(-6.93946e-11 -6.30226e-11 1.05928e-10)
(-1.25777e-11 2.60266e-10 3.40909e-10)
(1.14532e-10 -2.19567e-09 -2.81792e-09)
(4.79883e-10 1.44647e-09 1.737e-09)
(-2.68197e-07 -1.04563e-07 -3.54255e-07)
(-4.52974e-08 2.70862e-08 -5.51388e-08)
(7.90512e-08 -1.55044e-07 1.93602e-07)
(-2.81144e-07 1.88742e-07 -7.9947e-08)
(-1.34874e-07 -1.66036e-08 -2.03151e-07)
(5.89219e-09 6.34357e-10 -1.70095e-08)
(1.23863e-08 -5.66356e-08 2.60046e-08)
(-4.56892e-07 7.18106e-07 -1.70609e-07)
(-4.92269e-07 6.48262e-07 1.91217e-08)
(-7.05449e-07 -1.67061e-07 -5.91803e-07)
(-3.64912e-06 2.62634e-06 1.25916e-06)
(4.74802e-06 -4.16628e-06 -1.98819e-06)
(-4.00508e-07 -2.37962e-06 9.96361e-07)
(-1.71047e-06 1.49611e-06 2.01645e-06)
(-7.24857e-07 -7.3981e-08 9.27555e-07)
(-6.81932e-09 5.59768e-09 4.61638e-09)
(6.51725e-11 8.55757e-11 -6.90898e-11)
(3.62022e-12 8.27242e-13 -1.47166e-11)
(-8.33049e-14 -1.0699e-12 4.32018e-12)
(2.41816e-13 -3.25012e-13 -4.45546e-12)
(1.42788e-12 -1.93116e-12 -2.0589e-12)
(2.08174e-12 -1.70188e-12 -5.57572e-13)
(-5.16421e-12 1.34221e-12 -2.00814e-12)
(-9.69102e-15 1.46492e-13 2.92264e-13)
(-2.66717e-12 2.13614e-12 1.10871e-12)
(7.59438e-12 -2.54146e-12 4.95342e-12)
(-2.22535e-11 -8.89864e-11 -2.24525e-10)
(-5.95454e-13 -3.68321e-11 -5.13022e-11)
(5.18365e-13 -6.50862e-12 -1.17971e-11)
(2.58886e-12 -1.32289e-12 -1.37425e-12)
(4.94355e-11 -2.60346e-11 2.11653e-11)
(9.59039e-12 -5.78887e-11 1.48684e-10)
(-2.71439e-11 1.12724e-12 2.42631e-11)
(-2.16771e-12 1.50053e-12 -3.95639e-13)
(-9.94325e-15 3.27404e-14 -7.84604e-14)
(3.0991e-15 1.27282e-15 -4.24513e-15)
(-1.05663e-13 -3.73701e-14 1.53993e-13)
(-1.42699e-12 1.98713e-12 -2.58827e-12)
(-1.46712e-11 5.93896e-11 1.41208e-10)
(1.22755e-09 4.91978e-12 2.54228e-10)
(-6.96173e-09 -4.07223e-09 -9.02203e-09)
(-1.10723e-08 4.97782e-09 -1.33393e-08)
(6.71289e-09 -1.01381e-08 7.93081e-09)
(-8.39026e-09 1.09342e-09 -2.84999e-09)
(-1.40025e-09 7.94824e-10 -2.47666e-09)
(-1.92055e-09 1.40316e-09 4.40839e-09)
(1.09738e-11 2.05758e-10 3.95171e-09)
(4.49464e-09 -2.60193e-09 2.1786e-09)
(-5.5511e-07 5.4982e-07 3.85288e-08)
(2.07354e-08 -4.2618e-07 -1.24711e-07)
(-9.61502e-07 2.17445e-07 2.21725e-07)
(1.02485e-06 -7.26637e-07 -3.07701e-07)
(2.16356e-07 -5.30002e-07 1.66845e-07)
(-7.6059e-07 4.47115e-07 8.38357e-07)
(-3.28505e-08 6.31664e-09 2.44721e-08)
(-3.13963e-10 5.70435e-10 1.43242e-10)
(1.20034e-12 7.68846e-12 -3.52024e-12)
(6.68259e-14 1.85978e-13 -2.97257e-13)
(-3.29203e-16 1.54491e-14 -2.39854e-14)
(1.5287e-15 9.57933e-16 1.0567e-14)
(-3.0689e-15 7.66603e-15 7.96811e-15)
(-9.1733e-15 1.06014e-14 4.74907e-15)
(2.23016e-14 -1.24519e-14 1.72689e-15)
(4.97486e-17 1.69957e-16 5.22901e-16)
(8.64154e-15 -6.51809e-15 -7.02038e-15)
(2.05935e-14 -5.01025e-15 5.0422e-15)
(-9.35713e-14 -1.56704e-13 -3.85571e-13)
(-1.60927e-14 -3.22097e-13 -5.36324e-13)
(-1.41748e-13 1.03368e-12 2.23203e-12)
(-1.45557e-14 6.2158e-15 2.88083e-15)
(2.71861e-13 -9.29472e-14 1.49084e-13)
(1.54335e-13 -7.92626e-13 1.24082e-12)
(-2.13125e-13 -3.91628e-14 2.17785e-13)
(-2.22433e-14 1.43318e-14 -5.2704e-15)
(-4.07033e-16 7.44986e-16 -9.89024e-16)
(-7.92491e-17 1.80975e-17 1.25556e-16)
(1.3762e-15 -8.48471e-16 -9.36296e-16)
(4.96701e-15 -7.14706e-15 -2.14787e-15)
(-1.84381e-14 8.33736e-14 -1.83793e-13)
(-8.20022e-13 2.46176e-14 -3.07075e-13)
(-1.02996e-10 -9.68793e-11 -1.29627e-10)
(1.10131e-09 7.72712e-12 9.50174e-10)
(5.14569e-10 -5.88347e-10 4.17454e-10)
(-7.98928e-11 -4.78857e-11 -4.77657e-12)
(-1.23842e-11 9.83281e-12 -1.46765e-11)
(-1.62644e-12 4.5261e-12 9.86708e-12)
(-8.13162e-13 1.0628e-10 7.65945e-11)
(5.66634e-10 3.88204e-10 1.73146e-10)
(9.84913e-10 -7.21957e-10 -2.22251e-10)
(-6.89152e-10 3.77723e-09 1.27056e-09)
(-3.29328e-09 -9.25706e-10 7.75206e-10)
(1.52362e-08 -8.69211e-09 -3.42164e-09)
(4.85906e-09 -1.20236e-08 4.47064e-09)
(-2.36983e-09 -1.83824e-09 2.6338e-09)
(-8.74537e-11 2.80934e-11 6.31625e-11)
(-1.5818e-13 1.66679e-13 6.04138e-16)
(-3.47244e-16 -2.07991e-14 1.01383e-14)
(-4.51123e-16 -2.2661e-15 1.078e-15)
(2.635e-17 -1.16182e-16 6.12966e-17)
(-6.74186e-18 2.07682e-18 -1.04466e-17)
(2.88895e-18 -1.93802e-17 -2.73027e-17)
(2.70187e-17 -3.45683e-17 -2.40541e-17)
(-8.94577e-17 7.24607e-17 1.32273e-17)
(-0 -0 -0)
(-2.88334e-17 1.81035e-17 3.69474e-17)
(1.79611e-17 -3.40338e-18 -2.00031e-18)
(-1.36858e-16 -1.44741e-16 -3.20005e-16)
(-1.72383e-16 -1.78628e-15 -3.69272e-15)
(-7.75726e-16 5.73321e-15 1.43747e-14)
(-1.34877e-16 3.19378e-17 3.39459e-17)
(5.50025e-16 -3.24464e-16 3.05496e-16)
(8.53462e-16 -4.31446e-15 5.87366e-15)
(-1.25237e-15 -2.90587e-16 1.03399e-15)
(-1.40562e-16 2.2716e-17 -3.66243e-17)
(-3.49844e-18 7.91307e-19 -6.67883e-18)
(-0 -0 0)
(-2.63875e-18 2.86102e-18 1.42494e-18)
(3.79126e-18 -3.31193e-17 8.18217e-19)
(-2.57296e-17 -1.00282e-16 2.27695e-16)
(3.69635e-15 7.12886e-16 6.97987e-16)
(-1.27488e-13 -7.17092e-14 -8.27968e-14)
(2.80734e-12 1.28945e-12 3.05319e-12)
(2.60457e-12 -2.04675e-12 4.65228e-12)
(-7.10737e-13 -2.56836e-13 3.37529e-13)
(-1.46653e-13 2.5712e-14 -1.97005e-13)
(1.22111e-15 1.08806e-14 2.19324e-14)
(1.37134e-14 2.28628e-14 1.05279e-13)
(-9.97012e-13 -1.07843e-12 -1.27395e-13)
(-4.77457e-12 2.12641e-12 1.5941e-12)
(3.22719e-12 -1.22301e-11 -7.99343e-12)
(3.5363e-12 1.20265e-12 -3.59257e-13)
(2.49603e-11 -1.26135e-11 -4.13078e-12)
(2.27424e-11 -3.49422e-11 1.7451e-11)
(-6.78308e-12 -2.20336e-12 7.80584e-12)
(-4.46869e-13 1.74665e-13 2.88125e-13)
(-7.71891e-15 3.41227e-15 9.9864e-16)
(2.21665e-17 9.55103e-17 -5.71796e-17)
(4.87625e-18 1.25567e-17 -4.97689e-18)
(-3.02612e-18 7.78684e-18 -1.80895e-18)
(-7.39479e-18 5.77407e-18 -3.95669e-18)
(0 0 0)
(6.20297e-18 -6.69498e-18 -7.18232e-18)
(1.01368e-17 -6.71141e-18 -3.67975e-18)
(-0 -0 -0)
(0 -0 -0)
(-5.20945e-18 1.75048e-18 2.06977e-18)
(0 0 0)
(-6.17167e-19 -7.32058e-18 -1.6037e-17)
(-5.62733e-18 1.77653e-17 5.83856e-17)
(-0 0 0)
(-1.2937e-17 1.2142e-17 -1.11793e-17)
(2.75312e-18 -6.57976e-18 6.75375e-18)
(1.14633e-17 6.86787e-18 -9.80754e-18)
(0 -0 0)
(-3.77701e-18 7.91145e-18 -4.0878e-18)
(-0 -0 0)
(-1.6916e-18 2.19683e-18 1.172e-18)
(-7.33575e-19 1.64159e-18 1.77376e-18)
(-0 0 0)
(-1.05101e-17 2.03841e-18 2.989e-18)
(-1.68581e-16 4.70333e-17 -1.22912e-16)
(5.5148e-15 -2.15644e-16 5.88269e-15)
(1.53213e-14 -3.52568e-15 4.28555e-14)
(-7.66953e-15 -3.3909e-15 9.15114e-15)
(-1.95784e-15 -4.67167e-16 -2.12724e-15)
(-0 0 0)
(1.58935e-17 6.21905e-16 1.90226e-16)
(1.43608e-15 7.71988e-16 2.79303e-16)
(1.53515e-14 -4.3953e-15 -4.75143e-15)
(-1.05241e-14 3.49073e-14 2.2955e-14)
(-4.98726e-16 -1.96116e-16 1.5147e-17)
(4.17112e-14 -1.33111e-14 -3.5161e-15)
(1.10922e-13 -1.09963e-13 7.53086e-14)
(-2.45487e-14 -1.05987e-14 3.61744e-14)
(-3.18936e-15 7.03674e-16 1.94409e-15)
(-9.4631e-17 -1.52908e-17 4.83656e-17)
(5.6912e-19 -3.52094e-19 -2.33793e-18)
(-0 -0 0)
(9.13931e-19 -3.23689e-18 1.25823e-18)
(-4.2799e-18 4.26533e-18 -4.55838e-19)
(2.94713e-18 -1.32428e-18 2.6676e-18)
(4.72643e-18 -3.55864e-18 -5.82187e-18)
(-2.15075e-17 1.13885e-17 1.06351e-17)
(4.75397e-18 -1.65721e-18 2.0244e-18)
(7.03143e-18 -8.83965e-18 -1.48687e-17)
(5.30502e-18 -3.83781e-18 -3.07006e-18)
(0 0 0)
(1.62072e-19 2.52408e-18 5.32409e-18)
(-0 0 0)
(-2.74505e-18 8.8523e-19 1.72756e-18)
(-0 0 -0)
(-0 0 -0)
(-3.38328e-18 -5.55005e-18 3.86347e-18)
(0 -0 0)
(0 -0 0)
(0 -0 0)
(6.81404e-19 -8.10352e-19 -6.90066e-19)
(-0 0 0)
(-0 0 0)
(-4.88651e-18 3.60732e-18 3.77821e-18)
(5.42504e-18 -1.55253e-18 2.20344e-18)
(-0 0 -0)
(8.14443e-17 -3.63478e-17 3.17845e-16)
(-8.16781e-17 -5.52581e-17 1.16749e-18)
(-1.4648e-17 -5.28703e-18 -1.2353e-17)
(0 0 0)
(0 0 0)
(-0 0 0)
(-3.79752e-17 1.76544e-17 8.31075e-18)
(1.33629e-17 -5.27141e-17 -6.28481e-17)
(7.03872e-18 4.05388e-18 6.33574e-19)
(7.76932e-17 -5.63117e-18 -5.66472e-18)
(5.07104e-16 -5.80093e-16 3.2828e-16)
(-1.18953e-16 -1.49488e-16 2.06762e-16)
(-2.49015e-17 -2.43127e-18 1.47667e-17)
(0 -0 -0)
(-0 -0 0)
(2.66244e-18 1.3253e-18 -3.55365e-18)
(2.16507e-19 -3.62369e-18 2.11967e-18)
(-4.48671e-18 4.18836e-18 3.62046e-19)
(4.36783e-18 -1.00544e-18 5.23408e-19)
(-3.23785e-18 2.83242e-18 2.76768e-18)
(-0 0 0)
(-0 0 0)
(-2.0931e-18 8.13347e-18 5.39157e-18)
(1.45363e-17 -1.30094e-17 -4.75189e-18)
(0 -0 0)
(-1.224e-18 -3.87692e-18 -1.08194e-17)
(1.09441e-18 -1.04173e-18 -5.59427e-18)
(1.86795e-18 -1.19156e-18 -2.74782e-18)
(3.35978e-18 -4.88677e-18 1.89715e-18)
(-2.46433e-18 7.72306e-18 -2.95421e-18)
(0 0 -0)
(2.74778e-18 -3.20417e-18 -1.27667e-19)
(7.28376e-18 -4.13426e-18 -1.24427e-20)
(-2.81894e-18 8.04449e-19 1.0698e-18)
(-1.68353e-19 1.36922e-18 -2.57098e-19)
(-7.78736e-19 4.60948e-19 2.28843e-18)
(-0 0 0)
(2.23787e-18 -1.43717e-18 -4.26387e-18)
(-5.69558e-18 2.22374e-18 -1.85718e-18)
(5.75403e-18 -1.42745e-18 5.31688e-18)
(1.31242e-18 -2.31361e-18 7.33886e-18)
(0 0 -0)
(5.05294e-18 2.5125e-18 3.82571e-18)
(0 0 0)
(-1.29633e-18 -1.2592e-17 7.46678e-18)
(1.16126e-18 1.85431e-18 -2.84433e-18)
(-3.57779e-18 3.7273e-18 -2.89669e-19)
(0 -0 -0)
(6.138e-18 5.02521e-18 -1.83888e-18)
(8.04887e-18 1.84186e-19 -3.22592e-19)
(4.49224e-18 -8.26777e-18 3.3022e-18)
(-3.88536e-18 -9.51299e-18 7.64652e-18)
(7.58819e-18 2.22897e-18 -5.93176e-18)
(0 -0 -0)
(0 -0 0)
(-3.54096e-18 -9.40966e-19 3.6305e-18)
(-0 -0 0)
(0 -0 0)
(6.24287e-18 1.58273e-18 1.2917e-18)
(-0 0 0)
(-0 0 0)
(-0 0 -0)
(-0 -0 -0)
(7.85063e-18 -8.40221e-18 -4.00178e-18)
(0 -0 -0)
(1.86578e-18 4.82777e-19 5.2163e-18)
(-0 0 0)
(-7.77106e-19 4.88952e-19 2.09932e-18)
(-0 0 -0)
(-0 0 -0)
(-2.28825e-18 1.30146e-18 1.71157e-18)
(0 -0 0)
(0 -0 -0)
(-4.21568e-18 -1.29974e-19 2.3667e-18)
(-0 0 -0)
(-0 0 0)
(-0 -0 0)
(-1.3452e-18 4.25211e-20 2.909e-18)
(-0 0 -0)
(-0 0 -0)
(1.54354e-18 -5.31486e-18 1.63274e-17)
(3.352e-18 3.83705e-18 -4.67562e-18)
(-4.12077e-18 -9.56728e-19 -4.98725e-19)
(0 -0 0)
(-1.43448e-18 -2.60236e-18 4.11859e-18)
(-0 -0 0)
(9.6973e-20 -2.75446e-18 1.74155e-18)
(1.63824e-19 -8.12361e-18 -6.75571e-19)
(-0 -0 -0)
(-4.21955e-18 1.45307e-18 -1.02909e-18)
(-0 0 -0)
(2.29581e-18 5.98855e-18 -3.76108e-18)
(-4.09059e-18 -8.44981e-19 2.95669e-18)
(3.52207e-18 -1.90484e-18 -1.12616e-18)
(1.60294e-18 -3.46865e-18 1.07993e-18)
(-0 0 -0)
(-8.0328e-20 3.15867e-18 5.2975e-19)
(-6.26151e-18 -1.35004e-18 -2.28508e-18)
(0 -0 0)
(-0 0 0)
(-0 0 -0)
(-2.58777e-17 8.64518e-18 -4.34328e-18)
(2.95039e-18 1.57477e-18 4.1345e-18)
(7.69257e-18 -6.72228e-18 -6.79089e-18)
(0 -0 -0)
(-3.41545e-18 3.06149e-18 -3.50659e-18)
(-0 -0 0)
(6.14897e-19 -7.62325e-19 1.61696e-18)
(-0 0 -0)
(3.54805e-18 -1.58166e-18 1.248e-18)
(-4.55746e-18 1.70868e-18 2.31126e-18)
(-1.04434e-18 -9.26022e-19 -2.60076e-18)
(0 0 -0)
(9.30187e-18 -1.04709e-18 -3.3702e-18)
(-3.58994e-19 8.58299e-20 8.24351e-19)
(-0 0 0)
(-0 -0 0)
(-0 -0 0)
(-0 -0 -0)
(-5.61175e-18 5.09746e-19 -4.40874e-18)
(-0 0 -0)
(2.48444e-18 8.29939e-19 -6.57222e-18)
(0 -0 -0)
(0 -0 0)
(-0 0 0)
(-0 0 0)
(-0 -0 0)
(-1.72508e-19 9.44177e-19 -6.03102e-19)
(-0 -0 -0)
(-2.68285e-18 1.53594e-18 -2.26453e-18)
(-2.06703e-18 3.34574e-18 -8.66107e-19)
(8.37557e-19 3.22717e-18 -7.73187e-19)
(0 0 -0)
(-3.76379e-18 -1.34157e-18 1.05219e-18)
(0 0 0)
(-2.01397e-19 -2.43664e-18 2.65583e-18)
(-2.35123e-19 -4.03765e-18 3.6722e-19)
(0 0 0)
(0 -0 0)
(0 -0 -0)
(1.40875e-17 -3.05179e-18 8.30304e-19)
(1.43162e-17 -7.0738e-18 4.53694e-18)
(-0 0 -0)
(-5.08865e-18 3.116e-18 5.49773e-18)
(9.15037e-18 -6.77503e-18 -1.79649e-18)
(0 -0 0)
(0 -0 0)
(0 0 0)
(2.95387e-19 -9.43586e-19 2.10041e-19)
(-0 0 -0)
(-0 0 0)
(5.66162e-19 2.91283e-18 2.07751e-18)
(3.95042e-18 4.97566e-19 1.66466e-18)
(4.04733e-18 -3.70993e-19 -1.10564e-18)
(0 -0 -0)
(-2.74057e-18 3.43653e-19 -4.29817e-19)
(-0 -0 0)
(-4.39471e-19 -2.80646e-18 1.05772e-18)
(-0 -0 -0)
(-0 -0 -0)
(6.21455e-19 -1.13956e-18 4.25964e-18)
(0 0 -0)
(3.60522e-18 1.68406e-18 -1.55312e-18)
(-2.59742e-18 -1.14832e-19 -2.14851e-18)
(-0 0 0)