/*--------------------------------*- C++ -*----------------------------------*\
| =========                 |                                                 |
| \\      /  F ield         | OpenFOAM: The Open Source CFD Toolbox           |
|  \\    /   O peration     | Version:  5.0                                   |
|   \\  /    A nd           | Web:      www.OpenFOAM.org                      |
|    \\/     M anipulation  |                                                 |
\*---------------------------------------------------------------------------*/
FoamFile
{
    version     2.0;
    format      ascii;
    class       volVectorField;
    location    "50.4676134421789371";
    object      TGradpMean;
}
// * * * * * * * * * * * * * * * * * * * * * * * * * * * * * * * * * * * * * //

dimensions      [0 1 -2 1 0 0 0];

internalField   nonuniform List<vector> 
60000
(
(-0.00107249 0.000710069 -0.00102588)
(-0.0001538 0.000556009 -0.00200358)
(0.00131677 0.000201223 -0.00205988)
(0.00194789 -0.000111934 -0.00123218)
(0.00128489 -0.000179939 -0.000659459)
(0.000155755 -0.000145065 -0.000541202)
(-0.000304378 7.46691e-05 -6.71873e-05)
(-0.00023529 6.73559e-05 0.000789225)
(-0.000155763 -0.000173133 0.00122621)
(-0.000338615 0.000263542 0.000798433)
(-0.000434469 0.000379963 0.00029234)
(-0.000104065 0.000348686 0.000774667)
(0.000246039 5.75503e-05 0.00104407)
(0.000267308 -8.9268e-05 0.000925649)
(0.000322794 -2.91534e-05 0.000686212)
(0.000865033 -3.93857e-06 0.000949335)
(0.00199249 0.000256088 0.00149186)
(0.00195809 -8.2886e-05 0.00210671)
(-3.36444e-05 -1.92431e-05 0.00281482)
(-0.00223989 -4.20537e-05 0.00367029)
(-0.00340615 -0.000300451 0.00424446)
(-0.00293386 -0.000196304 0.00300803)
(-0.0001866 -0.000389269 0.000115774)
(0.00334094 -0.000345577 -0.00376895)
(0.00485637 -0.000927826 -0.00613365)
(0.00285463 -0.00131433 -0.00639035)
(-0.00116168 -0.00123518 -0.00522115)
(-0.00322412 -0.000697236 -0.00337939)
(-0.0023847 -0.00032996 -0.00104529)
(-0.00090604 -0.000227679 0.000718052)
(-0.00072729 -0.000175062 0.00151362)
(-0.00123277 0.000132574 0.001458)
(-0.00140442 0.00061002 0.001072)
(-0.000646559 0.00108938 0.000337673)
(0.000955131 0.00109807 0.000336958)
(0.00168709 0.000836271 0.00117456)
(0.000637496 -0.000127092 0.00141795)
(-0.000407247 2.81046e-05 0.00058518)
(-0.000613481 0.000365546 -1.42139e-06)
(-0.00084629 0.000560928 -0.000344794)
(-0.00121895 0.00196271 -0.00114614)
(-0.000198312 0.00146557 -0.00224785)
(0.00145276 0.000594289 -0.00230563)
(0.00214505 -0.000266968 -0.00129407)
(0.00140093 -0.000515056 -0.000636934)
(0.000163337 -0.000634459 -0.000530608)
(-0.000345642 0.000174522 2.29741e-05)
(-0.000308389 0.000107385 0.000867969)
(-0.000158621 -0.000135434 0.00132254)
(-0.000340579 0.000758208 0.000765753)
(-0.000522646 0.00103475 9.84454e-05)
(-0.000158328 0.00110027 0.000649668)
(0.000233817 0.000287984 0.000888062)
(0.000259551 -0.00018149 0.00081874)
(0.000322594 -0.000103857 0.000560546)
(0.00100692 -8.16265e-05 0.000832207)
(0.00240652 -0.000110795 0.00155785)
(0.00248167 -0.000739824 0.00228747)
(2.73589e-05 -0.000464029 0.00331343)
(-0.00298197 -0.000290813 0.00456622)
(-0.00467246 -0.0012332 0.00551321)
(-0.00416618 -0.00131275 0.00388474)
(-0.000387985 -0.00143568 -3.90571e-05)
(0.00463777 -0.00126785 -0.00531406)
(0.00688228 -0.00336662 -0.00858624)
(0.00417512 -0.0046681 -0.00875589)
(-0.00153669 -0.00396 -0.00691234)
(-0.00446349 -0.00138346 -0.00432537)
(-0.00327719 0.000112293 -0.0011971)
(-0.00122495 -0.000348733 0.00108296)
(-0.000982414 -0.00079362 0.00204514)
(-0.00164116 0.000305024 0.00191442)
(-0.00178913 0.00204983 0.00139762)
(-0.000762208 0.00362976 0.000337671)
(0.00124624 0.00262392 0.000321255)
(0.00197424 0.000898186 0.00133818)
(0.000623941 -0.000692412 0.00161547)
(-0.000510288 -0.000178332 0.000700628)
(-0.00069059 0.00086893 1.20617e-05)
(-0.00093426 0.00150895 -0.00038737)
(-0.000451001 0.000793945 -0.00043037)
(-0.00010543 0.000538212 -0.000846393)
(0.00051875 0.000231996 -0.000881295)
(0.000757897 -8.36021e-05 -0.00044388)
(0.000462027 -0.000201442 -0.000168054)
(5.89999e-05 -0.000181375 -0.00013794)
(-0.000105493 8.36238e-05 4.19682e-05)
(-0.000106927 4.96957e-06 0.000290567)
(-3.67535e-05 6.74726e-06 0.000425593)
(-0.000104271 0.00022393 0.000185062)
(-0.000195283 0.000427548 -9.81475e-05)
(-7.90089e-05 0.000482543 0.000120872)
(5.38039e-05 0.000179308 0.000210877)
(6.93388e-05 1.19138e-05 0.000191637)
(9.40973e-05 -2.73204e-05 0.000111504)
(0.000319066 -8.97053e-05 0.000184175)
(0.000813974 -0.000210758 0.000437868)
(0.000937112 -0.000517162 0.000717303)
(5.31948e-05 -0.000377573 0.00121148)
(-0.00124104 -6.04991e-05 0.00176641)
(-0.00196856 -0.000546298 0.00216524)
(-0.00173726 -0.000742531 0.001458)
(-0.000189069 -0.000697275 -6.88803e-05)
(0.00180268 -0.000518418 -0.00213379)
(0.0026777 -0.00171543 -0.00325728)
(0.00170127 -0.00249622 -0.00312528)
(-0.000482491 -0.00234819 -0.00237944)
(-0.00175457 -0.000997795 -0.00157306)
(-0.00143096 0.000113009 -0.000510041)
(-0.000600067 -9.81663e-05 0.000431074)
(-0.000433114 -0.000474889 0.000878539)
(-0.000630658 1.60323e-05 0.000811096)
(-0.000646036 0.000757859 0.000595917)
(-0.000303829 0.00142982 0.00015493)
(0.000427263 0.00116942 0.000171861)
(0.000736507 0.000123242 0.000509526)
(0.000222459 -0.000415218 0.000558664)
(-0.000169024 -0.000167336 0.000226393)
(-0.000211778 0.000248249 -4.50973e-06)
(-0.000306311 0.000577136 -0.000154759)
(-7.27333e-05 0.000102055 -6.84951e-05)
(-2.12054e-05 5.28666e-05 -0.000137092)
(8.21808e-05 1.07728e-05 -0.00014549)
(0.000108174 -1.25361e-05 -5.87428e-05)
(5.21294e-05 -1.90799e-05 -1.00636e-05)
(4.58924e-06 -7.31195e-06 -3.62605e-06)
(-1.36523e-05 1.03721e-05 1.05703e-05)
(-1.65281e-05 -2.85284e-06 4.14891e-05)
(-4.04316e-06 -6.69935e-06 6.2218e-05)
(-1.27286e-05 1.65105e-05 2.17857e-05)
(-3.12262e-05 6.77087e-05 -3.87815e-05)
(-1.58566e-05 7.36652e-05 2.85731e-06)
(4.36784e-06 1.94787e-05 1.0684e-05)
(1.7178e-06 9.69809e-06 1.71181e-06)
(-1.15772e-06 2.11241e-07 -1.26065e-05)
(1.4531e-05 -1.01139e-05 -9.76943e-06)
(7.69762e-05 -2.48858e-05 2.56208e-05)
(0.000166662 -0.000116283 0.000102776)
(2.57446e-05 -0.000137073 0.000288746)
(-0.000366182 6.33227e-05 0.000485433)
(-0.000506436 -1.60796e-05 0.000512647)
(-0.000332356 -9.53679e-05 0.000250664)
(-3.64177e-05 -0.000105859 -2.48634e-05)
(0.000179239 -3.60515e-05 -0.000237043)
(0.000266568 -0.000188649 -0.000323699)
(0.000195518 -0.000310553 -0.000308902)
(-4.81629e-05 -0.000411741 -0.000253261)
(-0.000291577 -0.000350663 -0.000228282)
(-0.000327001 -6.34339e-05 -9.84788e-05)
(-0.000165506 3.75101e-05 0.000109629)
(-0.000111862 -5.05241e-05 0.000209801)
(-0.000127222 -9.82207e-06 0.000163088)
(-0.000101614 5.95158e-05 9.30273e-05)
(-3.81378e-05 0.000127255 2.21377e-05)
(7.803e-05 0.000201624 3.18248e-05)
(0.000138291 8.32811e-05 0.000101136)
(3.28646e-05 -4.59406e-05 0.000103936)
(-2.87841e-05 -1.70334e-05 3.36731e-05)
(-2.66826e-05 1.99354e-05 5.21761e-07)
(-4.11094e-05 6.82701e-05 -1.90921e-05)
(-4.36166e-06 4.10941e-06 -3.87387e-06)
(6.36427e-07 -3.5983e-06 1.10862e-06)
(-5.13463e-06 -6.43796e-06 1.16865e-05)
(-1.72437e-05 -1.83904e-06 1.17624e-05)
(-1.84501e-05 -1.37863e-06 5.62176e-06)
(-5.28079e-06 1.65786e-06 5.43795e-06)
(3.20451e-06 -5.92946e-07 -1.67617e-06)
(1.21077e-06 7.1019e-07 -2.33846e-06)
(-1.54346e-07 -7.99675e-07 3.30121e-06)
(-8.43369e-07 2.63083e-06 1.35428e-06)
(-4.39145e-06 1.1203e-05 -9.57798e-06)
(-2.55367e-06 8.71539e-06 -1.07446e-06)
(-3.08e-07 -4.48096e-06 -3.37151e-06)
(-5.53989e-06 -1.24496e-05 -1.08996e-05)
(-9.24076e-06 -1.02891e-05 -1.05888e-05)
(-3.13008e-05 2.31012e-05 -1.36924e-05)
(-4.6032e-05 2.88163e-05 -2.10814e-05)
(1.98749e-05 -2.68805e-05 1.59388e-05)
(1.71058e-05 -0.000103448 0.000123533)
(-0.000217865 4.81437e-05 0.000273191)
(-0.000260283 6.212e-05 0.000243733)
(-1.95376e-05 -1.85453e-06 9.71399e-06)
(5.78353e-06 6.57433e-05 1.34465e-05)
(-0.000188438 4.0106e-05 0.000227236)
(-0.000206142 0.000167099 0.000253829)
(-7.64381e-05 0.000155057 0.000128015)
(8.7089e-06 9.75295e-05 4.7825e-05)
(-4.80388e-06 -1.00894e-05 -5.24323e-06)
(-7.10871e-05 -2.41844e-05 -1.9129e-05)
(-5.82486e-05 5.28751e-05 3.70463e-05)
(-3.75327e-05 3.20999e-05 6.08761e-05)
(-2.0524e-05 8.71337e-06 2.292e-05)
(5.15688e-06 1.04825e-06 -5.52522e-06)
(7.09639e-06 -1.20119e-05 -4.22169e-06)
(-3.40906e-07 -3.11252e-06 -2.1068e-07)
(1.75042e-05 7.47334e-06 1.17727e-05)
(2.81357e-06 -1.19364e-07 1.13958e-05)
(-1.31881e-06 1.01918e-06 4.71213e-07)
(1.81525e-06 2.06451e-08 7.27598e-07)
(-5.30922e-07 1.44763e-06 1.48574e-07)
(4.15478e-06 -2.19288e-06 2.94165e-06)
(2.61012e-06 -2.66291e-06 1.10107e-05)
(-9.50777e-06 -3.93126e-06 2.23584e-05)
(-2.06648e-05 6.19269e-07 1.32922e-05)
(-1.6098e-05 -5.52344e-06 2.76558e-06)
(-3.76147e-06 -4.62167e-07 2.25568e-06)
(3.88449e-06 7.09002e-07 -3.37374e-06)
(3.64165e-06 1.68644e-06 -7.11588e-06)
(-1.97132e-08 4.55104e-06 -4.78363e-06)
(1.74622e-08 -1.45017e-06 -2.82592e-07)
(-4.65425e-07 1.83445e-06 -1.2449e-06)
(-1.26501e-06 4.14387e-06 -3.31459e-07)
(1.38326e-07 5.84388e-08 -4.58282e-07)
(-4.83134e-06 1.32867e-06 -7.21476e-06)
(-4.41169e-06 -1.86403e-05 -1.90508e-06)
(-2.1096e-05 6.67806e-06 -3.52489e-06)
(-4.60556e-05 3.47654e-05 -1.79031e-05)
(-1.92883e-05 2.28118e-05 -5.36845e-06)
(1.51046e-05 -7.24209e-05 5.48733e-05)
(-0.000155115 9.43789e-06 0.000188024)
(-0.000241906 0.000100438 0.000210215)
(5.2277e-06 4.27797e-07 -6.06112e-06)
(1.43132e-05 3.51902e-05 2.23899e-05)
(-0.000212813 9.43183e-05 0.000264701)
(-0.000189801 0.000150695 0.000245316)
(-5.11611e-05 9.62192e-05 8.12796e-05)
(2.72222e-06 3.99649e-05 1.80376e-05)
(1.83528e-05 3.28608e-05 1.18915e-05)
(-1.2236e-06 -2.86111e-06 -1.74619e-06)
(-2.02992e-05 2.51466e-05 1.62393e-05)
(-2.22753e-05 3.99582e-05 3.32117e-05)
(-9.871e-06 1.19035e-05 9.35138e-06)
(1.17418e-05 -5.25558e-06 -8.10398e-06)
(8.7323e-06 -1.09049e-05 -1.98823e-06)
(-1.17963e-05 -9.55392e-06 -1.90898e-06)
(-5.04317e-06 1.51399e-07 -2.75823e-06)
(-7.50729e-07 -2.03547e-07 -3.19899e-07)
(1.9787e-06 -4.69923e-06 -2.49755e-06)
(4.61373e-06 -5.99698e-06 5.07809e-07)
(4.86585e-06 -4.89063e-06 4.53024e-07)
(3.56003e-06 -1.97731e-06 1.1139e-06)
(1.2988e-06 9.04383e-07 5.35209e-06)
(-4.45339e-06 1.32674e-06 1.12635e-05)
(-9.16246e-06 -1.78827e-06 6.69266e-06)
(-6.43411e-06 -3.27912e-06 5.283e-07)
(-1.23384e-06 -1.66893e-06 3.68081e-07)
(2.23483e-06 -1.061e-06 -2.44399e-06)
(2.97289e-06 4.18272e-07 -4.77923e-06)
(-2.65171e-07 1.97953e-06 -5.08323e-06)
(-4.36652e-07 -7.71817e-07 -2.55843e-07)
(5.68075e-08 3.18054e-08 -6.34911e-08)
(-1.08837e-06 1.63716e-06 -4.10199e-07)
(1.22463e-07 -1.33284e-07 -1.49348e-07)
(-2.4792e-06 8.73318e-06 -1.84033e-06)
(-2.60659e-06 -6.03407e-06 -4.46185e-07)
(-7.02564e-06 -4.20921e-06 7.10362e-07)
(-2.26259e-05 1.74182e-05 -8.26167e-06)
(-2.65689e-05 3.73886e-05 -1.05854e-05)
(6.57764e-06 -3.36088e-05 1.74244e-05)
(-9.3633e-05 -2.79663e-05 0.000113558)
(-0.000214396 0.000104453 0.000172918)
(-1.27797e-05 5.98938e-06 7.93746e-06)
(2.33774e-05 -3.29697e-05 1.30129e-06)
(-0.000140397 0.000135187 0.000182056)
(-0.000100781 8.59885e-05 0.000135172)
(-2.17255e-05 3.86155e-05 3.48372e-05)
(-1.86578e-07 -4.58568e-07 -2.81018e-07)
(2.90858e-07 7.63104e-07 4.51035e-07)
(5.54733e-06 2.2953e-06 -1.07618e-06)
(-4.8404e-07 -6.95329e-07 -1.30205e-07)
(-7.81005e-06 1.30936e-05 1.19259e-05)
(-1.08101e-05 1.48188e-05 9.68873e-06)
(1.57836e-07 6.48332e-07 -3.05949e-07)
(3.92075e-06 -5.81265e-06 4.61522e-07)
(-6.34505e-06 -3.19216e-06 3.37665e-07)
(-6.34948e-06 2.26954e-06 -2.90852e-06)
(-1.01108e-06 6.67885e-07 -1.29932e-06)
(6.79076e-07 -2.5687e-06 -1.23446e-06)
(2.47949e-06 -5.32623e-06 2.13695e-07)
(3.4577e-06 -4.89453e-06 -3.51616e-08)
(1.95091e-06 -1.69344e-06 1.04715e-07)
(8.16283e-07 4.03696e-07 2.04374e-06)
(-1.81399e-06 2.14361e-06 4.15669e-06)
(-3.13881e-06 -3.54517e-07 2.20739e-06)
(-1.24217e-06 -4.86144e-07 1.76484e-08)
(-1.4459e-07 -3.36945e-07 -2.90859e-08)
(6.11724e-07 -5.29685e-07 -7.9709e-07)
(1.08588e-06 -6.24678e-07 -1.76839e-06)
(-1.21349e-07 -4.88381e-07 -1.99025e-06)
(-2.58425e-07 6.7788e-08 -2.06533e-07)
(-9.20295e-08 6.03483e-07 -3.79479e-07)
(-1.21294e-06 7.467e-07 -1.10758e-06)
(-1.86548e-07 -9.5924e-07 -4.26323e-07)
(-1.30126e-06 5.84845e-06 -3.71928e-07)
(-2.01768e-06 2.16399e-06 -2.97405e-07)
(-1.62069e-06 -2.17045e-06 5.73619e-07)
(-5.64635e-06 4.00313e-06 -2.41348e-06)
(-1.83546e-05 3.04305e-05 -8.76709e-06)
(-3.64621e-06 6.86413e-06 -8.95542e-07)
(-4.13621e-05 -3.85567e-05 5.389e-05)
(-0.000150492 7.86934e-05 0.000112999)
(-1.52051e-05 1.0516e-05 9.31815e-06)
(3.1691e-05 -3.44456e-05 -2.09646e-05)
(-6.92125e-05 9.78625e-05 9.17146e-05)
(-4.54072e-05 2.8884e-05 6.1548e-05)
(-8.98309e-06 1.30717e-05 1.44714e-05)
(-1.3562e-07 3.78122e-06 2.59437e-06)
(-6.95602e-07 -1.22569e-06 -4.742e-07)
(-2.58968e-07 -3.13385e-08 2.67534e-07)
(7.05937e-07 -2.41216e-07 -1.3372e-06)
(-2.10058e-08 -1.53901e-07 -2.21237e-08)
(-3.16245e-06 3.1475e-06 2.51196e-06)
(-3.3758e-06 3.57926e-06 1.00912e-06)
(7.98312e-08 -2.55973e-08 -3.29991e-08)
(-1.28589e-06 -1.15635e-06 4.09785e-07)
(-2.77052e-06 6.54e-07 -1.02324e-06)
(-9.2937e-07 6.60254e-07 -1.13553e-06)
(9.85424e-08 -1.71302e-07 -5.84856e-07)
(6.38505e-07 -1.45563e-06 -3.04165e-08)
(1.29211e-06 -2.21e-06 1.88961e-07)
(6.44225e-07 -6.75473e-07 -7.15013e-08)
(4.18328e-07 -1.72066e-07 5.89836e-07)
(-5.37978e-07 6.31497e-07 1.28005e-06)
(-9.24017e-07 2.93925e-07 6.25678e-07)
(-2.47298e-07 -1.17943e-08 -1.47993e-08)
(6.63495e-09 1.48804e-09 -8.8629e-09)
(2.24832e-09 -2.52575e-09 7.86204e-09)
(1.60037e-07 -1.59634e-07 -2.42302e-07)
(7.80731e-09 -2.61342e-07 -5.242e-07)
(-7.82451e-08 3.46175e-08 -5.61388e-08)
(-4.75067e-08 3.12642e-07 -3.64087e-07)
(-1.22402e-06 1.26551e-06 -1.27287e-06)
(-3.71808e-07 -6.67578e-07 -5.6485e-07)
(-8.18336e-07 2.96528e-06 -2.00556e-08)
(-1.6699e-06 2.70851e-06 -6.40197e-07)
(-4.4973e-07 -5.64331e-07 1.40656e-07)
(4.91898e-08 2.96911e-08 -3.05165e-08)
(-6.68787e-06 1.50488e-05 -3.07998e-06)
(-7.22503e-06 2.47149e-05 -4.711e-06)
(-1.0426e-05 -2.43424e-05 1.7311e-05)
(-7.78779e-05 4.58754e-05 5.5466e-05)
(-1.06608e-05 9.33274e-06 6.22007e-06)
(3.00044e-05 -3.04343e-05 -1.57231e-05)
(-3.04772e-05 3.32351e-05 3.83092e-05)
(-2.16319e-05 5.29475e-06 2.94102e-05)
(-3.40373e-06 3.52436e-06 5.68821e-06)
(-7.73345e-08 5.47705e-07 6.19418e-07)
(2.0487e-07 2.56897e-07 9.89188e-08)
(-1.31266e-07 -7.9797e-08 1.13224e-07)
(-3.93669e-08 -1.26719e-08 1.13509e-07)
(1.7183e-07 -2.12771e-08 -3.31595e-07)
(1.15533e-07 -7.64753e-08 -8.66885e-08)
(-6.40463e-07 4.19642e-07 1.32759e-07)
(-4.41588e-07 5.20912e-07 -2.7875e-07)
(2.62813e-08 -1.1803e-09 -1.47038e-08)
(-5.41165e-07 4.11769e-08 -1.18026e-07)
(-3.67151e-07 1.45973e-07 -4.22462e-07)
(-1.15707e-08 6.95462e-08 -2.3568e-07)
(8.16574e-08 -2.08314e-07 -6.68289e-08)
(2.74502e-07 -5.44704e-07 -1.09469e-07)
(1.48568e-07 -1.71689e-07 -2.42848e-08)
(1.7966e-07 -1.52705e-07 1.49432e-07)
(-1.28539e-07 1.20247e-07 3.76026e-07)
(-2.30401e-07 9.89503e-08 1.61743e-07)
(-1.48527e-07 4.34924e-08 -3.82594e-08)
(-1.40101e-09 -2.20924e-09 -1.75243e-09)
(-8.65022e-11 5.56665e-11 -3.83089e-10)
(1.88421e-09 -3.78509e-10 -9.30073e-11)
(1.43122e-08 -9.01387e-08 -1.20114e-07)
(-3.18586e-08 -1.6938e-08 -6.05919e-08)
(7.41491e-09 -6.90051e-08 -1.48481e-07)
(-7.32513e-07 6.61714e-07 -7.74504e-07)
(-2.93796e-07 9.0061e-08 -4.05084e-07)
(-2.96934e-07 7.77973e-07 5.22906e-08)
(-1.02494e-06 1.25947e-06 -3.8166e-07)
(-2.37436e-07 -1.29979e-07 -5.99432e-08)
(3.10129e-07 -6.44442e-07 3.20669e-07)
(-7.65465e-07 2.79482e-06 -5.93492e-07)
(-4.44508e-06 1.54762e-05 -2.43972e-06)
(-8.18109e-07 -6.78063e-06 2.81812e-06)
(-2.80721e-05 1.72135e-05 1.90108e-05)
(-7.05025e-06 6.76747e-06 3.8419e-06)
(1.85808e-05 -2.0726e-05 -9.94455e-06)
(-1.16057e-05 4.60991e-06 1.41026e-05)
(-8.77389e-06 2.57972e-06 1.24821e-05)
(-1.38413e-06 9.71546e-07 2.41089e-06)
(-8.1854e-08 -2.34494e-08 1.60817e-07)
(7.21057e-09 1.21275e-08 4.93556e-09)
(2.899e-08 2.61191e-09 -9.0443e-08)
(-1.14439e-08 -1.22342e-08 1.269e-08)
(-9.48579e-09 -4.92506e-09 1.64918e-08)
(2.18655e-08 -1.92616e-09 -1.58123e-08)
(9.83545e-08 -7.86427e-08 -8.39439e-09)
(-3.09817e-08 1.66443e-08 -2.19266e-08)
(4.38189e-08 -5.82882e-10 -6.54178e-08)
(7.04072e-09 -4.85005e-09 2.08491e-09)
(-6.84093e-08 1.93241e-08 -6.61185e-08)
(-1.12785e-08 -7.55649e-09 -7.60131e-08)
(1.21511e-08 -6.13867e-08 -4.7367e-08)
(2.97216e-08 -9.40178e-08 -5.22445e-08)
(5.94059e-09 -4.86803e-09 -2.10623e-09)
(2.73592e-08 -2.53942e-08 1.71301e-08)
(-1.53709e-08 8.59549e-10 6.5631e-08)
(-2.97836e-08 1.05923e-08 2.30193e-08)
(-4.32754e-09 1.10276e-09 1.01537e-09)
(-2.85161e-10 -2.92673e-10 -6.17138e-11)
(-8.87185e-10 1.43115e-09 4.64318e-10)
(-1.68943e-09 -1.99593e-09 9.22631e-10)
(-1.03236e-10 -5.74573e-09 -3.63942e-09)
(-5.94292e-09 1.80824e-09 -8.73946e-10)
(3.54323e-09 -1.90925e-08 -1.16247e-08)
(-1.80632e-07 1.99097e-08 -2.29521e-07)
(-1.36151e-07 1.09857e-07 -1.61606e-07)
(-5.779e-08 4.22698e-08 4.51725e-08)
(-4.224e-07 3.54103e-07 -2.08338e-07)
(-1.12788e-07 3.07046e-09 -9.50161e-08)
(1.07505e-08 -1.64074e-07 1.0603e-07)
(1.3674e-07 -5.89859e-07 1.35132e-07)
(-1.21777e-06 3.69211e-06 -6.12195e-07)
(-1.48092e-07 -2.37404e-07 1.14409e-07)
(-6.46018e-06 3.31963e-06 3.91398e-06)
(-3.84296e-06 3.57065e-06 1.82746e-06)
(8.2762e-06 -9.12502e-06 -4.10371e-06)
(-2.86902e-06 -7.22579e-07 4.01747e-06)
(-2.84838e-06 9.01469e-07 3.74699e-06)
(-4.02614e-07 1.58194e-07 6.41798e-07)
(-8.07051e-08 -1.36956e-08 1.13285e-07)
(3.35033e-09 3.78567e-09 -3.14456e-10)
(6.79509e-10 9.17194e-10 2.48578e-10)
(6.59472e-10 8.18517e-10 -8.8146e-10)
(-5.75508e-10 -3.6569e-10 1.08847e-09)
(-7.80164e-10 1.55388e-10 5.49775e-10)
(6.05062e-10 2.75033e-11 -1.10337e-10)
(1.08628e-09 -6.01063e-10 9.30218e-10)
(2.34448e-10 2.67363e-11 -5.90708e-10)
(-1.67677e-10 -4.83334e-11 8.39994e-11)
(-3.84305e-10 3.88387e-11 3.12398e-11)
(-1.81786e-09 1.15736e-10 -3.3488e-09)
(-1.60677e-10 -7.67569e-10 -2.36883e-09)
(-1.25717e-09 1.48871e-09 2.07063e-09)
(2.10841e-09 -1.18138e-09 -8.26714e-10)
(4.72808e-09 -3.96861e-09 2.6746e-09)
(-1.07509e-09 -1.93431e-09 8.54073e-09)
(-1.69037e-09 1.56024e-11 1.39038e-09)
(-1.43804e-10 2.74024e-11 1.2972e-11)
(-3.10089e-12 4.15374e-14 -7.55869e-13)
(4.50161e-12 3.22662e-12 2.60399e-12)
(-4.49068e-11 -6.6226e-11 1.71421e-11)
(7.81645e-11 1.30967e-10 -2.97534e-11)
(-8.33246e-10 -1.84213e-10 -3.532e-10)
(1.98888e-10 -3.29676e-10 -2.15299e-10)
(-9.33302e-08 -4.85965e-08 -1.26706e-07)
(-1.65924e-08 9.07973e-09 -2.02602e-08)
(1.24208e-08 -4.97819e-08 6.97278e-08)
(-1.04273e-07 7.15136e-08 -4.61794e-08)
(-4.12791e-08 8.12496e-09 -7.07848e-08)
(2.59448e-09 6.44916e-09 -9.91166e-09)
(1.46729e-08 -1.24545e-07 5.09818e-08)
(-1.8719e-07 3.90124e-07 -8.34823e-08)
(-1.47801e-07 2.78395e-07 -9.82525e-09)
(-8.20347e-07 -9.10739e-08 8.0677e-08)
(-1.4533e-06 1.03446e-06 5.35194e-07)
(2.37576e-06 -2.32245e-06 -9.54031e-07)
(-4.60595e-07 -9.92867e-07 9.11769e-07)
(-8.71084e-07 4.17901e-07 1.03322e-06)
(-2.51987e-07 3.18883e-09 3.20191e-07)
(-1.97119e-09 1.26505e-09 1.39433e-09)
(-1.39569e-11 -3.8808e-11 -3.76304e-11)
(-7.7238e-12 -1.03472e-11 -3.70007e-12)
(-5.14089e-12 -6.5728e-12 4.99944e-12)
(2.74485e-12 1.4081e-12 -5.03084e-12)
(4.55135e-12 -1.61309e-12 -3.20646e-12)
(-3.05815e-12 8.90912e-13 6.62422e-13)
(-6.23711e-12 4.18458e-12 -5.13672e-12)
(-5.08995e-13 2.20267e-13 2.27319e-12)
(-4.04847e-12 1.09274e-12 1.99129e-12)
(1.6733e-11 -3.18817e-12 1.78902e-12)
(-1.21104e-10 1.81339e-11 -1.72539e-10)
(-7.49439e-12 -3.3672e-12 -3.77128e-11)
(2.22788e-11 -1.4548e-11 -5.85581e-11)
(1.05308e-11 -2.46347e-12 -2.76578e-12)
(5.56169e-11 -3.98563e-11 4.93067e-11)
(-1.52883e-11 -6.86844e-11 1.39606e-10)
(-2.78749e-11 -6.73172e-12 2.37681e-11)
(-2.26334e-12 8.96042e-13 -1.4001e-13)
(-4.69426e-14 6.23729e-14 -3.32966e-14)
(4.18721e-16 4.38682e-15 3.69556e-15)
(-1.04781e-14 -3.03772e-13 -1.56632e-13)
(-4.49284e-12 4.99819e-12 6.6206e-12)
(3.99425e-11 -2.75636e-11 -1.65907e-11)
(2.83935e-10 1.68927e-09 1.84795e-09)
(-4.97791e-09 -4.64931e-09 -7.76353e-09)
(-6.86e-09 -6.53391e-11 -9.32741e-09)
(7.3948e-10 -2.84696e-09 -2.68548e-09)
(-7.22025e-09 5.43507e-09 -5.40466e-09)
(-6.56262e-10 8.70204e-10 -1.3782e-09)
(-1.49934e-09 -1.78946e-09 4.38091e-09)
(-2.03159e-11 -3.16446e-09 5.08904e-09)
(-4.47144e-09 1.23039e-08 -1.60441e-09)
(-1.74297e-07 2.01762e-07 7.34632e-09)
(-5.23512e-08 -1.92835e-07 -4.93691e-09)
(-3.79243e-07 9.82396e-08 9.96582e-08)
(4.49679e-07 -3.5825e-07 -1.23943e-07)
(9.38452e-09 -2.7598e-07 1.67775e-07)
(-2.71758e-07 9.00288e-08 3.04175e-07)
(-1.06047e-08 3.76939e-09 9.62948e-09)
(-8.37861e-11 2.57635e-10 1.03828e-10)
(3.12752e-12 6.7021e-12 2.7876e-13)
(1.76568e-13 2.73124e-13 -4.96094e-14)
(2.29256e-14 4.12872e-14 -2.0408e-14)
(-6.14842e-15 -2.55913e-15 1.37037e-14)
(-1.61702e-14 1.2407e-14 1.40935e-14)
(1.07189e-14 -7.66379e-15 -2.19246e-15)
(3.33602e-14 -1.51316e-14 2.14209e-14)
(5.5132e-16 -9.75009e-16 -5.98994e-15)
(1.02647e-14 -4.01556e-15 -7.08396e-15)
(6.9513e-14 -1.09948e-14 -2.18571e-15)
(-4.07497e-13 4.40454e-14 -4.13952e-13)
(-1.33856e-13 -2.32341e-14 -5.09326e-13)
(-4.46555e-13 2.61142e-13 1.83305e-12)
(2.62846e-15 3.05781e-15 -1.52227e-15)
(3.91746e-13 -1.3176e-13 4.78946e-13)
(-1.41992e-13 -1.01091e-12 1.38037e-12)
(-2.69163e-13 -6.59549e-14 2.24146e-13)
(-2.4862e-14 1.52766e-15 -5.64921e-15)
(-7.63688e-16 6.94036e-16 -6.09622e-16)
(-1.00757e-17 2.21775e-16 -3.82633e-20)
(8.55921e-16 -3.17717e-16 7.53565e-16)
(1.55124e-14 -1.9213e-14 -3.0907e-14)
(-4.89051e-14 1.03432e-13 -2.04355e-14)
(4.45859e-14 2.94982e-12 2.06667e-12)
(-1.55534e-10 -1.35237e-10 -2.25362e-10)
(8.27684e-10 3.37634e-10 1.07297e-09)
(7.86669e-11 -7.8991e-11 -3.55747e-11)
(-1.00303e-10 5.73521e-11 -7.92712e-11)
(-8.74345e-12 1.41403e-11 -1.67019e-11)
(-1.73299e-13 2.0665e-12 7.24313e-13)
(-9.30679e-12 1.62657e-10 1.05723e-10)
(4.21819e-10 -2.03994e-10 1.17129e-10)
(-3.3961e-10 1.41858e-09 -1.78738e-11)
(1.40809e-10 1.97312e-09 5.85335e-11)
(-1.33507e-09 -3.28514e-10 3.69572e-10)
(1.30977e-08 -9.1405e-09 -2.21126e-09)
(7.08458e-10 -6.67458e-09 5.12092e-09)
(-1.08002e-09 -2.53525e-10 1.24801e-09)
(-3.55088e-11 2.62042e-11 3.43424e-11)
(-1.82985e-14 4.23488e-13 1.86294e-13)
(-1.9547e-15 -7.86861e-15 2.95311e-15)
(-6.10398e-16 -1.17147e-15 1.59188e-16)
(-4.22023e-17 -1.47302e-16 2.77703e-17)
(2.92133e-18 8.42112e-18 -1.97432e-17)
(3.85064e-17 -3.79699e-17 -4.23796e-17)
(-2.21097e-17 1.48904e-17 6.33638e-18)
(-1.5524e-16 6.45661e-17 -4.30315e-17)
(-3.3626e-19 1.20739e-18 1.92163e-17)
(-3.81064e-17 1.60053e-17 3.42897e-17)
(1.09847e-16 -1.18251e-17 -1.77627e-17)
(-6.38624e-16 -2.40114e-17 -5.47282e-16)
(-1.17615e-15 1.6811e-18 -4.35849e-15)
(-3.61496e-15 5.41425e-16 1.47759e-14)
(-3.63062e-16 7.35444e-17 7.98547e-18)
(1.31978e-15 -1.84592e-15 2.81885e-15)
(-1.58088e-15 -7.05288e-15 8.11874e-15)
(-1.89664e-15 -3.25402e-16 1.19041e-15)
(-1.84752e-16 1.02438e-17 -3.67772e-17)
(-1.11319e-17 3.79013e-18 -6.55006e-18)
(1.99552e-20 -1.00102e-19 -7.22431e-19)
(-4.33892e-18 3.17086e-18 -4.07433e-18)
(-1.69939e-17 -5.42937e-18 7.95522e-17)
(2.3054e-16 -5.19005e-16 -1.05519e-16)
(1.43513e-15 8.80026e-15 1.14456e-15)
(-3.66795e-13 -3.68759e-13 -5.18071e-13)
(3.73652e-12 2.65394e-12 5.27239e-12)
(1.18483e-14 2.52542e-12 1.83235e-12)
(-1.18454e-12 8.01529e-13 -7.99046e-13)
(-1.47959e-13 1.45267e-13 -2.62085e-13)
(-7.44082e-15 7.82557e-15 -3.0617e-14)
(-1.77908e-14 3.66018e-14 6.44999e-14)
(-1.3465e-13 4.99207e-13 1.73224e-13)
(2.24365e-12 -6.83449e-12 -8.2386e-13)
(-8.2169e-13 -8.84864e-12 7.87993e-13)
(-9.72836e-13 -3.50378e-13 1.32558e-13)
(3.70801e-11 -2.26741e-11 -2.34865e-12)
(8.08318e-12 -1.95264e-11 2.39179e-11)
(-4.04904e-12 6.32952e-13 4.96425e-12)
(-2.21157e-13 1.6396e-13 1.97111e-13)
(-2.58138e-15 5.89711e-15 3.00254e-15)
(1.281e-16 2.02682e-16 4.3121e-17)
(7.84847e-18 1.14379e-17 9.68558e-19)
(-6.05224e-19 1.55737e-18 -3.61789e-19)
(-2.50281e-18 3.96398e-18 -2.41459e-18)
(2.13694e-18 -4.75933e-19 -2.08101e-18)
(6.97525e-18 -5.96982e-18 -5.47908e-18)
(-4.49295e-18 1.96742e-18 -3.34671e-19)
(8.76584e-19 2.48423e-19 5.67856e-18)
(-6.53415e-18 4.51368e-18 6.80446e-18)
(-1.30048e-17 3.1259e-18 3.76295e-18)
(0 0 0)
(-6.47733e-18 -6.75923e-19 -2.63516e-17)
(-1.18455e-17 -2.89348e-19 5.93274e-17)
(1.28591e-18 -6.73392e-19 -3.10743e-19)
(-2.42545e-18 3.35022e-18 -3.61635e-18)
(1.99317e-18 -1.78471e-17 1.75623e-17)
(2.05536e-18 1.16272e-18 -1.16216e-18)
(4.76307e-18 -3.05846e-18 6.12714e-19)
(1.17372e-18 2.03675e-19 -5.87852e-20)
(-4.40467e-19 3.39949e-18 3.12019e-19)
(-1.5085e-18 9.93432e-19 -9.51912e-19)
(-3.97973e-20 2.31144e-19 1.18654e-18)
(-2.2723e-20 -8.26216e-20 1.66108e-19)
(3.85245e-19 8.76816e-18 -1.355e-18)
(-8.43068e-16 -6.67349e-16 -8.42302e-16)
(1.27756e-14 9.35991e-15 2.01153e-14)
(-2.30345e-15 4.63129e-14 4.9341e-14)
(-1.6021e-14 1.19009e-14 -9.89732e-16)
(-2.50417e-15 1.10673e-15 -3.6571e-15)
(-6.71074e-17 1.08592e-16 -2.83839e-16)
(1.11301e-16 4.33332e-16 -2.41516e-16)
(-8.81145e-16 -3.92825e-15 1.92916e-16)
(-4.71211e-16 2.35077e-14 5.66023e-15)
(3.98532e-15 3.25482e-14 2.57871e-15)
(-3.92239e-15 9.45353e-16 1.52602e-15)
(1.08764e-13 -4.66886e-14 5.0754e-16)
(7.13246e-14 -7.29676e-14 1.16425e-13)
(-2.06025e-14 3.41184e-15 2.91542e-14)
(-1.89061e-15 1.01226e-15 1.57147e-15)
(-3.14829e-17 3.61477e-17 4.2459e-17)
(3.50159e-18 2.57456e-18 4.39822e-19)
(-5.17745e-18 -4.61954e-18 -2.27246e-19)
(1.96911e-18 3.26338e-18 4.89097e-19)
(-3.62828e-18 6.24979e-18 -4.21672e-19)
(6.43026e-19 -4.74179e-19 1.05764e-18)
(2.36015e-18 -1.42454e-18 -1.96447e-18)
(-1.34881e-17 6.51688e-18 4.63872e-18)
(-3.28142e-19 -4.02684e-19 9.49021e-19)
(3.06575e-18 -3.61205e-18 -6.13554e-18)
(6.84668e-18 -3.07816e-18 -2.84739e-18)
(-7.13911e-19 -1.39079e-19 -3.40655e-19)
(-2.82003e-20 9.29585e-19 1.98528e-18)
(-1.99919e-19 2.20686e-19 8.25456e-19)
(-5.49011e-19 1.77046e-19 3.45513e-19)
(1.1894e-18 -2.907e-18 4.40427e-18)
(2.50091e-19 -2.37898e-18 4.99386e-18)
(-9.10163e-19 -1.13939e-18 1.08781e-18)
(3.97827e-19 -1.00895e-19 -2.77919e-19)
(2.76435e-18 -3.62516e-18 -1.26102e-18)
(-1.14997e-18 1.85008e-18 7.11838e-20)
(4.62317e-19 -1.13629e-18 -8.88649e-19)
(9.57864e-20 -8.24896e-19 2.3774e-20)
(1.92906e-19 -6.2226e-20 9.33272e-19)
(-8.10526e-19 7.89862e-19 5.44478e-19)
(-1.7477e-18 -3.66859e-18 -2.02316e-18)
(2.73815e-17 1.45183e-17 4.65728e-17)
(-8.60338e-18 2.55357e-16 6.52784e-16)
(-2.05538e-16 3.63032e-17 1.08304e-16)
(-3.11703e-17 7.11547e-18 -3.6422e-17)
(3.88099e-19 9.25976e-19 8.42192e-19)
(-3.23362e-19 -1.19229e-18 7.83663e-19)
(6.94338e-18 3.46881e-18 -1.95833e-18)
(-5.64369e-18 -6.72139e-17 -2.38277e-17)
(-7.08754e-19 -2.03838e-17 -2.39421e-17)
(-2.00128e-17 1.21209e-17 2.95584e-18)
(4.86991e-16 -7.45929e-17 2.10504e-17)
(4.77678e-16 -5.81115e-16 6.17919e-16)
(-1.17808e-16 -5.70457e-17 2.02272e-16)
(-2.04474e-17 8.96255e-18 1.78412e-17)
(-1.39387e-18 3.32306e-18 1.36758e-18)
(3.24541e-18 9.28528e-19 -4.88302e-19)
(1.97809e-18 1.26377e-18 -1.48062e-18)
(4.33013e-20 -7.24738e-19 4.23934e-19)
(-2.00917e-18 3.19727e-18 2.1697e-19)
(9.57953e-19 -3.23494e-19 8.36304e-20)
(4.26944e-18 -1.64427e-18 -1.74126e-18)
(9.7224e-18 -3.55187e-18 -1.95834e-18)
(1.27478e-18 -9.2556e-20 -5.97803e-20)
(-4.18621e-19 1.62669e-18 1.07831e-18)
(8.17612e-18 -5.29353e-18 -3.05602e-18)
(-4.33158e-18 4.02427e-19 -1.1035e-18)
(3.94326e-20 -5.4358e-19 3.83413e-19)
(-1.45164e-19 -1.90059e-19 1.28014e-18)
(1.61808e-19 2.29504e-19 3.54527e-20)
(5.9253e-19 -5.38174e-19 -5.6189e-19)
(1.01914e-19 7.28835e-20 7.52326e-19)
(1.38932e-18 9.64592e-19 -1.2326e-18)
(2.98031e-18 -2.39782e-18 -1.13492e-19)
(3.11961e-18 -2.62452e-18 1.77873e-18)
(-2.29767e-18 9.242e-19 6.14919e-19)
(-5.33493e-19 4.7522e-19 5.82024e-19)
(-1.55747e-19 9.21895e-20 4.57686e-19)
(0 0 0)
(-1.3567e-18 4.28484e-19 -6.87084e-19)
(1.47656e-18 1.84556e-19 2.36049e-18)
(1.47305e-18 -1.35308e-19 2.05213e-18)
(-1.04144e-18 -1.79433e-18 1.2686e-17)
(-1.96396e-18 -1.10389e-18 7.11211e-19)
(2.52935e-18 4.88523e-19 1.79442e-18)
(-1.27185e-18 1.18751e-18 -5.72942e-18)
(-2.59267e-19 -2.5184e-18 1.49336e-18)
(1.13722e-19 -2.62403e-20 1.39123e-19)
(-7.15558e-19 7.45459e-19 -5.79337e-20)
(2.14791e-19 -7.09248e-19 -3.20089e-18)
(-2.06477e-18 -2.07094e-19 -2.33394e-18)
(3.40325e-18 1.55519e-19 1.13619e-19)
(2.79459e-18 -5.32887e-18 3.19726e-18)
(-2.31836e-18 -3.80857e-18 4.49711e-18)
(2.47978e-18 -2.65423e-19 -2.32154e-18)
(0 0 0)
(1.80506e-18 5.90764e-18 -1.64546e-18)
(-7.08191e-19 -1.88193e-19 7.261e-19)
(-3.89388e-19 -6.10908e-19 3.76648e-20)
(-7.87482e-19 1.14497e-18 -3.93157e-20)
(-1.92226e-19 -1.37657e-19 7.51437e-20)
(-2.02397e-19 2.37299e-19 -1.31234e-19)
(-2.08421e-18 7.03308e-19 -2.92503e-20)
(0 0 0)
(1.5149e-18 -1.17453e-18 -2.07102e-18)
(5.2864e-18 -3.72435e-18 -2.61237e-18)
(-1.06498e-18 6.06592e-19 2.41108e-20)
(2.8547e-19 2.8238e-19 -7.01155e-19)
(-1.17905e-19 3.39942e-20 4.60546e-20)
(1.97228e-20 7.36899e-20 5.75247e-19)
(5.0605e-20 -3.48282e-19 2.53938e-19)
(-2.8716e-19 2.6346e-19 8.57808e-20)
(-6.77324e-19 3.40205e-19 8.2583e-19)
(1.5778e-18 -3.56992e-18 8.63456e-19)
(1.95666e-18 -7.01761e-19 -3.61246e-19)
(-3.46252e-18 -4.96776e-20 1.79921e-18)
(-7.76566e-20 1.7723e-19 -7.71064e-20)
(1.52951e-19 -9.40888e-20 5.80015e-19)
(-4.12086e-19 8.27208e-20 -1.15412e-18)
(-1.36418e-18 3.67247e-19 1.5474e-18)
(-9.27664e-19 3.62919e-19 -6.3547e-19)
(4.58039e-19 -3.10329e-20 8.56288e-19)
(3.27714e-19 -6.61314e-19 1.73198e-18)
(1.28666e-18 1.49317e-18 -1.60637e-18)
(-3.02011e-18 2.53358e-19 -2.12479e-18)
(1.75648e-19 9.4324e-19 -8.4612e-19)
(-8.73584e-20 -3.99994e-19 2.78127e-19)
(-3.49624e-19 -1.00463e-18 1.2428e-19)
(5.2049e-19 -2.54448e-18 -6.04173e-20)
(-7.55119e-19 -8.56499e-18 -2.43443e-18)
(-4.50186e-18 -3.74684e-18 -1.25366e-18)
(-3.56769e-18 1.10601e-18 -1.24777e-18)
(-5.2765e-19 1.86281e-18 -9.0776e-19)
(1.23376e-18 2.97512e-18 -3.04426e-18)
(-1.5889e-18 1.47816e-18 3.17426e-18)
(3.10671e-19 -6.79115e-18 -4.33463e-18)
(9.45128e-19 3.66067e-18 6.5425e-19)
(-6.42897e-19 9.74176e-19 3.29114e-19)