/*--------------------------------*- C++ -*----------------------------------*\
| =========                 |                                                 |
| \\      /  F ield         | OpenFOAM: The Open Source CFD Toolbox           |
|  \\    /   O peration     | Version:  5.0                                   |
|   \\  /    A nd           | Web:      www.OpenFOAM.org                      |
|    \\/     M anipulation  |                                                 |
\*---------------------------------------------------------------------------*/
FoamFile
{
    version     2.0;
    format      ascii;
    class       volScalarField;
    location    "50.4676134421789371";
    object      TKEMeanProd;
}
// * * * * * * * * * * * * * * * * * * * * * * * * * * * * * * * * * * * * * //

dimensions      [0 2 -3 0 0 0 0];

internalField   nonuniform List<scalar> 
60000
(
-6.96715e-10
1.84777e-09
4.18908e-09
2.10856e-09
-7.337e-11
-8.30005e-11
1.45119e-10
1.50957e-10
-2.54533e-10
-1.88946e-10
-1.09361e-09
-1.19457e-09
-4.95797e-10
-5.5679e-10
-1.2073e-09
-1.08852e-09
-2.17516e-10
1.84393e-09
1.08315e-08
2.22918e-08
2.87865e-08
7.22451e-09
-2.28868e-08
-2.42218e-08
1.76593e-08
5.33201e-08
3.70595e-08
1.64536e-09
-8.60288e-09
-5.77921e-09
-5.98807e-09
-1.20572e-08
-1.80355e-08
-1.30482e-08
-5.62984e-09
-4.08534e-09
-3.72385e-10
-1.00482e-09
-9.13252e-10
-8.87969e-10
-1.91196e-08
-9.34957e-11
1.19229e-08
-3.44484e-09
-1.08916e-08
-3.3018e-09
-1.10196e-09
-2.67705e-09
-4.29332e-09
-1.63371e-08
-3.23222e-08
-2.85412e-08
-5.31823e-09
1.71268e-09
4.55515e-09
1.52546e-08
4.1138e-08
7.06592e-08
5.55703e-08
-1.53075e-08
-1.06044e-07
-1.8544e-07
-1.55129e-07
8.83295e-08
5.38713e-07
9.13448e-07
7.9411e-07
3.28604e-07
-1.12629e-09
-3.3162e-08
6.15753e-09
2.85039e-08
2.6134e-09
-3.68604e-08
-4.08748e-08
-1.46134e-08
-5.00336e-09
3.91554e-09
1.14268e-08
-9.09217e-09
-1.52599e-08
-3.08513e-08
-5.27385e-09
-2.51314e-09
-1.66357e-08
-1.20277e-08
-4.70822e-09
-2.34563e-09
-3.36545e-09
-1.31429e-08
-2.60307e-08
-4.19046e-08
-1.95863e-08
1.07288e-09
8.93019e-09
4.50083e-08
1.0982e-07
1.37412e-07
5.95919e-08
-4.91907e-08
-1.5177e-07
-2.15892e-07
-7.77565e-08
2.12517e-07
6.01286e-07
8.47413e-07
6.44601e-07
2.15576e-07
-6.99671e-08
-8.6378e-08
-1.47464e-08
2.93081e-08
5.64768e-08
3.40867e-08
-1.31231e-08
-1.70653e-08
-4.99366e-09
-4.56202e-10
4.63097e-08
4.14227e-08
2.02779e-08
-1.20915e-08
-4.15148e-11
-1.72057e-09
-2.10175e-08
-2.04218e-08
-1.28508e-08
-1.48088e-09
-5.28908e-10
-3.89248e-09
-2.04259e-09
-1.18958e-08
-9.98701e-09
2.41207e-09
-7.28345e-09
2.3846e-08
9.62698e-08
7.95767e-08
-2.4973e-08
5.95018e-09
3.46041e-08
-3.0324e-08
1.65155e-07
3.286e-07
4.19269e-07
4.10901e-07
1.9199e-07
-2.86798e-08
-8.74522e-08
2.20037e-09
5.7704e-08
-6.63678e-10
-2.25383e-08
-9.33633e-10
-2.13308e-09
-1.08136e-08
2.18284e-09
-3.58707e-08
-1.32365e-08
4.62672e-08
4.01793e-08
1.47364e-08
3.18546e-09
1.44947e-09
-2.17016e-08
-1.8287e-08
-6.011e-09
-3.38413e-09
-2.22117e-09
-4.18967e-09
-8.0799e-09
4.84546e-09
-4.87557e-10
1.07146e-08
-1.00931e-08
1.69524e-08
1.30228e-07
8.75527e-08
-9.14091e-08
6.3815e-08
2.75888e-07
1.00508e-07
2.81876e-07
4.53679e-07
3.73902e-07
2.47023e-07
7.32699e-08
-3.89406e-08
-5.12681e-08
3.47272e-08
1.32638e-07
8.26283e-08
-1.46661e-08
-4.21759e-08
-2.66095e-08
-1.22764e-08
9.75275e-09
-2.40971e-08
-7.68534e-08
-4.01883e-11
2.76112e-08
4.5859e-08
9.41191e-09
-5.47252e-09
-1.71706e-08
-1.75342e-08
5.07131e-09
2.56502e-09
-7.52914e-09
-9.11545e-09
-1.239e-08
2.4183e-10
1.59631e-08
6.79474e-09
2.63402e-09
8.08355e-08
2.84058e-07
2.07224e-07
-5.3782e-08
1.35188e-07
6.36955e-07
2.73765e-07
2.44821e-07
4.75196e-07
2.46787e-07
9.0185e-08
1.83873e-08
-3.06679e-08
-3.95286e-08
-3.14294e-08
8.55902e-09
5.13776e-08
3.52114e-08
8.96394e-09
-9.03796e-09
-1.80602e-08
-1.4231e-08
-2.89621e-08
-7.95019e-08
-4.08831e-08
-5.81427e-09
2.97924e-08
3.47212e-08
1.92205e-09
-5.78997e-09
-9.64478e-09
3.07163e-09
4.46594e-09
-2.39698e-09
-7.14404e-09
-4.79198e-09
1.10409e-08
4.02667e-08
1.46329e-08
6.16196e-09
2.32008e-07
5.18805e-07
3.04525e-07
6.12552e-09
2.34946e-07
1.10622e-06
6.39223e-07
1.45562e-07
2.8204e-07
-3.386e-08
-4.56169e-08
-1.85353e-08
-3.1909e-08
-2.71741e-08
-1.97454e-08
-2.60005e-08
-1.96389e-08
1.23125e-08
5.54722e-08
9.32166e-08
4.81035e-08
-1.09913e-08
-2.77329e-08
-5.00319e-08
-4.85e-08
-1.28248e-08
-4.75076e-09
7.73987e-09
5.42674e-09
4.99049e-09
2.39395e-09
4.35984e-10
2.23405e-09
1.84572e-10
4.55647e-08
7.05897e-08
6.88556e-08
6.34927e-08
5.68302e-09
4.29861e-10
4.37538e-07
6.68291e-07
3.0863e-07
1.83611e-08
2.12716e-07
1.33304e-06
1.18315e-06
1.43269e-07
5.20766e-08
-1.78299e-07
-9.31765e-08
-4.46084e-08
-3.4798e-08
-2.8385e-08
-2.36556e-08
-2.52867e-08
-3.39852e-08
-2.96465e-08
1.9833e-09
9.20242e-08
1.48823e-07
5.64924e-08
-1.14419e-08
-2.41748e-08
-2.44908e-08
9.87607e-09
-9.82278e-10
-3.38474e-08
-2.77231e-08
3.83821e-09
6.86901e-09
-4.59563e-09
-6.48155e-09
-2.88361e-09
5.44867e-08
2.43927e-07
3.29414e-07
1.4906e-07
-4.29023e-08
7.81991e-09
4.79667e-07
5.34142e-07
2.0787e-07
9.93327e-09
8.85936e-08
9.36842e-07
1.50129e-06
3.24767e-07
-4.80732e-08
-1.51757e-07
-9.49841e-08
-5.16652e-08
-3.10803e-08
-3.19238e-08
-3.20408e-08
-3.29227e-08
-4.35018e-08
-4.58692e-08
-2.78009e-08
6.67169e-09
9.15507e-08
1.11668e-07
3.56001e-08
-8.44499e-10
1.97308e-09
3.53157e-08
3.78689e-08
-3.44031e-08
-5.16455e-08
3.96388e-09
1.25132e-08
-8.03122e-09
-1.68072e-08
-9.97428e-09
6.36996e-09
2.12753e-07
6.64472e-07
4.0478e-07
-2.79835e-08
3.79019e-08
2.54987e-07
2.06101e-07
7.43011e-08
3.06822e-09
2.69878e-08
3.44048e-07
1.11232e-06
5.166e-07
-4.52269e-08
-8.17902e-08
-7.01101e-08
-2.5397e-08
-1.95568e-08
-3.26429e-08
-3.4522e-08
-3.2841e-08
-4.20255e-08
-4.8955e-08
-3.09026e-08
-7.87858e-09
1.22995e-08
4.94921e-08
5.49473e-08
2.76995e-08
2.04453e-08
3.78058e-08
5.73149e-08
-2.45243e-08
-4.67752e-08
1.67658e-08
1.33528e-08
-3.96238e-10
-5.28361e-09
-5.95931e-09
-4.3907e-09
4.83969e-08
5.18536e-07
6.64429e-07
5.29027e-08
4.52918e-08
2.6893e-08
-3.83939e-08
-2.08869e-08
-1.71895e-09
9.67114e-09
9.54279e-08
4.49631e-07
4.57721e-07
-1.51087e-08
-8.6696e-08
-1.89905e-08
1.92927e-08
-6.02933e-09
-2.59997e-08
-2.94288e-08
-2.87112e-08
-3.56693e-08
-4.07337e-08
-2.53398e-08
-5.40548e-09
1.83444e-09
7.62167e-09
1.68495e-08
1.73859e-08
1.69835e-08
2.0926e-08
3.60751e-08
-1.74236e-08
-2.07745e-08
4.72376e-09
-7.97767e-09
-1.10265e-09
4.39893e-10
4.3411e-09
5.02713e-10
1.8227e-09
1.7326e-07
5.55768e-07
1.42644e-07
1.53428e-08
-3.20649e-08
-1.33491e-07
-7.90581e-08
-7.73246e-09
2.32068e-09
3.96046e-08
1.56266e-07
2.38177e-07
-1.18018e-08
-1.03181e-07
7.24266e-09
2.9679e-08
2.69143e-10
-1.47001e-08
-2.05601e-08
-2.87833e-08
-4.26787e-08
-4.11996e-08
-1.5478e-08
-1.84135e-09
1.56557e-09
4.6997e-09
3.38616e-09
1.81091e-09
4.24025e-09
1.40696e-08
1.5753e-08
-3.57434e-09
-3.9304e-09
-2.37145e-08
-2.41171e-08
-2.57262e-09
-2.12113e-09
3.1563e-09
4.68727e-09
-1.5683e-09
4.34678e-08
2.95905e-07
1.96849e-07
3.06287e-09
-1.23652e-08
-1.29927e-07
-8.98747e-08
-1.67856e-08
7.81421e-09
3.5144e-08
9.79236e-08
1.10007e-07
-1.45427e-08
-5.58069e-08
-1.42424e-08
6.89622e-09
-3.45269e-10
-4.6863e-09
-8.74553e-09
-2.41103e-08
-5.66721e-08
-6.67347e-08
-8.94999e-09
1.25246e-08
2.22596e-09
6.69176e-09
2.21426e-09
-1.37835e-09
1.64801e-09
1.58136e-08
1.21216e-08
-2.26727e-09
-1.46885e-09
-1.48206e-08
-8.94542e-09
8.36771e-09
2.83589e-09
-5.52112e-10
6.21122e-09
-1.27778e-09
1.59826e-08
1.56217e-07
2.1603e-07
2.73339e-08
-1.04727e-08
-8.01165e-08
-4.32522e-08
-1.88659e-08
6.49327e-09
6.60076e-08
8.69914e-08
5.73953e-08
5.56123e-10
-5.84899e-09
4.61848e-09
1.83431e-09
-1.53621e-10
1.65533e-09
5.88734e-09
-1.36585e-09
-3.77016e-08
-8.62085e-08
-2.25421e-08
5.29915e-08
1.51111e-08
3.42749e-09
3.97612e-10
-4.42067e-09
3.04714e-09
1.3957e-08
1.24493e-08
-7.7263e-10
-3.04299e-09
-1.34155e-11
4.08198e-09
7.53983e-09
5.19999e-09
-1.25781e-09
2.9437e-09
1.65008e-09
1.32733e-08
8.82568e-08
1.97662e-07
6.49535e-08
-1.02839e-08
-2.16701e-08
-2.21678e-08
-1.54911e-08
-5.65835e-09
6.37934e-08
1.54954e-07
1.29064e-07
4.53376e-08
6.73112e-09
-1.24697e-09
4.73166e-09
7.60058e-10
5.15475e-09
1.20961e-08
1.22979e-08
3.53497e-09
-5.52548e-08
-5.88023e-08
8.16557e-08
7.39389e-08
7.3809e-09
1.14462e-09
-5.14879e-09
7.33716e-10
1.11886e-08
1.45352e-08
5.71149e-09
6.55917e-10
3.95179e-09
3.84511e-09
-7.80765e-11
-6.12468e-10
1.99163e-12
-4.18234e-10
3.61531e-09
1.57943e-08
5.7689e-08
1.12628e-07
3.66025e-08
-4.54301e-09
7.8254e-09
-7.63297e-09
-6.55693e-09
-7.62061e-09
1.24454e-09
8.00822e-08
1.29509e-07
5.34181e-08
-3.10608e-08
-1.64718e-08
2.74431e-09
-9.61099e-10
-5.0135e-09
-1.35033e-08
-1.26742e-08
5.61964e-09
-1.00483e-08
-6.98813e-08
2.48898e-08
1.2616e-07
4.22555e-08
8.12595e-10
-2.31389e-09
2.17241e-11
6.12413e-09
1.0923e-08
6.67063e-09
6.34037e-09
1.52375e-08
1.07674e-08
9.28749e-10
-1.6172e-11
1.00889e-12
1.60348e-11
4.48517e-09
2.69924e-08
5.20274e-08
4.32031e-08
-7.09436e-09
1.00364e-08
1.37506e-08
-8.65254e-09
-1.24118e-09
-3.12024e-09
-1.1387e-09
2.88158e-08
1.99332e-08
-3.86311e-09
3.85626e-08
4.29038e-08
-1.6423e-08
-5.15741e-09
7.23949e-09
-2.2466e-08
-3.23144e-08
-1.69608e-08
5.19758e-10
-2.81993e-08
-1.83237e-08
1.08775e-07
9.82429e-08
1.43976e-08
2.60276e-10
8.81851e-10
3.19914e-09
3.91517e-09
6.33121e-09
3.09031e-08
5.78274e-08
2.06307e-08
-4.02818e-09
1.55475e-09
-2.55972e-09
-1.41641e-09
3.62082e-09
3.57888e-08
7.24626e-08
3.7443e-08
-2.33817e-09
1.0691e-08
-1.05386e-08
-1.70728e-08
6.84296e-09
-4.38019e-09
-3.24913e-10
2.25073e-08
-1.26975e-08
-3.29416e-08
8.30117e-09
4.35286e-09
3.07094e-08
9.16405e-08
5.26591e-08
-1.57107e-08
-2.55143e-08
-2.94081e-08
-8.93693e-09
1.77818e-09
-1.51977e-09
7.50081e-08
1.32834e-07
6.19147e-08
2.08093e-09
-1.05182e-09
1.73481e-10
9.91007e-10
3.89996e-08
9.39612e-08
5.45351e-08
-2.68789e-09
1.92449e-09
-1.81659e-09
-5.87111e-09
-2.66756e-09
3.04089e-09
3.52547e-08
6.74973e-08
3.45439e-08
9.62509e-11
-1.19362e-09
-1.67862e-08
-5.90277e-09
1.98493e-08
4.18257e-09
-3.43995e-09
6.81234e-09
3.59199e-09
-4.66204e-09
-3.13819e-10
2.53703e-08
3.3304e-08
1.44044e-08
5.55392e-10
7.1682e-09
1.10501e-08
-1.17158e-08
4.92454e-08
1.10194e-07
1.71141e-08
2.13618e-08
1.07533e-07
1.06908e-07
3.64596e-08
1.92733e-09
1.62296e-08
-5.50718e-09
6.14083e-09
4.11296e-08
1.43426e-09
-3.54401e-09
5.41635e-09
-8.95302e-09
4.45124e-09
7.64411e-09
-4.02134e-09
2.01318e-08
3.69255e-08
1.07998e-08
-1.80419e-09
-1.62765e-09
-7.07824e-09
-2.4163e-09
8.1048e-09
4.54112e-09
-2.26275e-09
2.59731e-09
3.1598e-09
4.35838e-10
3.8948e-09
7.11215e-09
4.06418e-09
5.354e-09
-2.77179e-09
-2.18491e-08
-1.28125e-08
1.7416e-08
4.31418e-08
1.66272e-07
1.35618e-07
2.58843e-09
2.55922e-08
6.00567e-08
4.35699e-08
2.35554e-08
6.8286e-10
2.49659e-09
4.69828e-10
-3.16775e-09
3.53175e-09
1.08052e-08
1.11922e-09
-6.51077e-09
1.29059e-08
2.75362e-08
8.37193e-09
9.99751e-10
1.03369e-09
-1.67766e-09
2.85164e-09
4.92754e-09
-3.81788e-10
-1.04716e-08
-1.4671e-08
-6.3822e-09
-6.24091e-10
-1.58697e-10
1.78486e-09
3.07351e-09
2.90122e-09
1.99343e-10
-1.05756e-09
-8.08062e-10
-2.9306e-09
-6.02277e-09
-9.48604e-10
1.12791e-08
8.97918e-09
4.31038e-08
8.88107e-08
2.2632e-08
1.83692e-09
2.70273e-08
1.83418e-08
3.98582e-09
-5.17686e-09
5.09846e-09
4.40956e-09
-1.38979e-09
2.1915e-09
4.16019e-09
7.83188e-10
-7.5737e-11
2.03548e-08
5.05259e-08
3.38955e-08
-9.44775e-09
-7.18333e-09
1.33623e-09
-7.71283e-09
-4.2785e-09
7.99953e-10
1.90927e-09
-2.34982e-09
-2.40177e-09
1.51796e-09
-2.57056e-09
-2.34616e-09
5.13262e-09
7.69888e-09
5.13533e-09
1.96956e-09
-2.83978e-09
-1.13232e-08
-1.61986e-08
-7.9651e-09
6.63557e-09
4.17133e-09
1.18921e-08
4.42009e-08
2.55321e-08
2.09533e-10
2.94262e-09
2.31272e-09
-5.74057e-09
-3.08931e-09
2.51053e-11
3.13273e-09
-1.79501e-09
-8.95019e-09
-1.29813e-08
-7.80439e-09
5.62759e-09
2.2269e-08
2.83071e-08
1.69564e-08
-1.29381e-09
-7.25751e-09
-4.78477e-09
4.6397e-10
1.40183e-08
1.73703e-08
1.40671e-08
1.15788e-08
6.4973e-09
4.23944e-09
4.11006e-09
3.6403e-09
1.77063e-09
5.34872e-09
1.08226e-08
5.83121e-09
-4.66087e-09
-1.09857e-08
-1.02106e-08
-4.60471e-09
5.95037e-10
3.50412e-09
6.29078e-10
1.24488e-09
1.97415e-11
-2.34431e-09
2.51943e-09
3.65065e-09
-4.46602e-10
-7.08382e-10
-8.67389e-10
8.58757e-11
3.06251e-10
-7.63172e-09
-1.6912e-08
3.90806e-09
5.06835e-08
8.74568e-08
8.4992e-08
4.24481e-08
7.58725e-09
-9.86581e-10
5.42869e-10
2.96162e-09
2.4279e-09
-5.88895e-11
-1.28955e-09
1.8909e-10
2.73631e-09
5.44134e-09
8.92213e-09
1.19023e-08
1.19181e-08
9.49592e-09
7.28497e-09
6.70067e-09
6.35764e-09
2.67023e-09
-4.30739e-10
7.62013e-10
-3.53955e-11
5.86188e-09
1.6766e-08
7.71993e-09
-2.22575e-09
-2.99397e-09
-8.37549e-10
7.94382e-10
2.34186e-10
-4.4449e-09
-4.13461e-09
-1.72094e-09
3.27745e-09
2.60428e-09
9.33574e-09
3.90958e-08
5.55996e-08
4.0918e-08
3.08516e-08
2.13258e-08
1.01956e-08
8.92704e-09
1.16121e-08
1.5314e-08
1.60025e-08
1.05423e-08
3.40913e-09
-7.25671e-11
1.32584e-09
5.10186e-09
7.78112e-09
5.52684e-09
5.7528e-11
-2.04006e-09
-7.67043e-10
1.24395e-09
3.84127e-09
3.76658e-09
-3.80705e-10
-4.09673e-09
-3.71531e-09
1.14062e-09
1.26834e-08
1.31291e-08
-3.02161e-09
-1.27178e-08
-1.06342e-08
-6.40516e-09
-5.04916e-09
1.40561e-10
-5.43009e-10
-7.62808e-10
-1.2821e-09
-1.67994e-09
-1.10603e-09
1.62491e-09
3.34181e-09
4.33732e-09
4.77866e-09
3.88962e-09
2.5729e-09
1.80386e-09
-4.29333e-09
-1.31514e-08
-1.79191e-08
-1.78618e-08
-1.27693e-08
-4.42706e-09
-3.66928e-09
6.52798e-09
1.80411e-08
3.41146e-09
-2.98238e-08
-3.78399e-08
-3.70391e-08
-3.05513e-08
-2.64401e-08
-1.88376e-08
-1.12585e-08
-4.54867e-09
-3.11404e-09
-3.17258e-09
-3.77079e-09
8.4993e-10
-8.50035e-09
1.49119e-11
2.05828e-12
-9.76998e-14
2.23835e-10
-7.76539e-10
-1.6251e-09
-2.67698e-09
1.43973e-09
1.55892e-08
2.77173e-08
3.23316e-08
2.6487e-08
9.17767e-09
-3.05648e-10
-1.37003e-09
1.66107e-08
4.6137e-08
7.08526e-08
1.06391e-07
1.77759e-07
2.54457e-07
3.07023e-07
3.0207e-07
1.15605e-07
-3.20789e-08
4.23345e-09
-1.00449e-08
-6.14508e-08
-2.18349e-09
7.27399e-08
2.93683e-08
-3.81411e-08
1.3476e-08
1.45561e-07
2.82176e-07
3.1005e-07
2.4279e-07
9.23043e-08
1.37324e-08
1.3468e-08
7.27179e-08
3.32835e-08
4.65492e-09
-6.14796e-10
-3.24481e-09
-5.53022e-09
-4.63844e-09
9.18388e-09
3.95196e-08
6.03494e-08
5.25433e-08
2.9513e-08
-5.43491e-09
-2.0756e-08
-2.96791e-08
-8.2204e-09
3.74128e-08
9.2556e-08
1.76284e-07
2.97636e-07
3.88703e-07
3.97223e-07
3.4203e-07
1.29192e-07
-1.30992e-07
-5.76222e-08
-4.38172e-08
5.66165e-09
1.49502e-07
2.38394e-07
1.27366e-07
-2.06621e-08
-8.30578e-09
1.21874e-07
2.81747e-07
3.48321e-07
2.80422e-07
1.24994e-07
-1.49315e-08
-1.93345e-08
1.79532e-07
2.22254e-07
3.45249e-08
-6.70899e-10
3.32409e-10
-3.92357e-09
-3.14529e-09
7.26841e-09
3.2309e-08
4.69243e-08
3.40505e-08
9.04661e-09
-3.91499e-09
-1.96499e-09
-9.3302e-09
-6.68243e-09
1.7431e-08
6.47932e-08
1.4811e-07
2.37965e-07
2.49035e-07
1.69064e-07
7.7259e-08
-1.67228e-09
-7.68912e-08
1.56504e-07
9.00347e-08
1.0132e-07
2.45872e-07
2.04866e-07
5.81557e-08
-4.40893e-08
-3.71893e-08
-6.45864e-09
4.0926e-08
9.46665e-08
7.99515e-08
1.14758e-08
-3.24068e-08
8.08996e-08
4.31686e-07
5.36895e-07
1.47802e-07
3.68866e-09
4.8123e-09
2.20596e-09
-1.96062e-09
4.55805e-09
2.80874e-08
3.9875e-08
2.16288e-08
-1.22936e-09
3.67739e-09
2.20471e-08
1.54641e-08
2.90454e-09
4.96959e-09
5.60389e-08
1.80826e-07
2.86072e-07
2.33368e-07
1.00913e-07
-2.22282e-09
-2.94132e-09
8.16582e-08
4.24981e-07
3.41399e-07
1.6744e-07
3.97429e-07
2.39625e-07
4.72001e-08
-2.77527e-08
-1.75557e-08
-7.77947e-09
-1.18176e-08
9.12408e-09
1.32082e-08
-7.48851e-09
2.68987e-09
1.68121e-07
7.06095e-07
1.04057e-06
4.50559e-07
3.44793e-08
1.03012e-08
1.02713e-08
-5.03678e-09
4.51854e-09
4.24158e-08
6.35106e-08
2.72198e-08
-9.19304e-09
1.56864e-08
4.04503e-08
1.77203e-08
-4.0415e-09
-1.19568e-08
6.08025e-08
2.78486e-07
4.08793e-07
2.57613e-07
8.74759e-08
-7.9556e-09
-2.92554e-08
1.53132e-07
5.65722e-07
6.06709e-07
1.92294e-07
5.10292e-07
2.39136e-07
2.74859e-08
-1.70055e-08
-2.93935e-08
-2.63058e-08
-1.04523e-08
9.71261e-09
9.2248e-09
-4.97818e-09
1.3466e-08
1.05387e-07
4.84708e-07
1.07823e-06
7.70656e-07
1.76444e-07
9.79272e-08
1.65991e-08
5.11018e-10
-3.81664e-09
3.94308e-08
8.4269e-08
5.68608e-08
-1.25282e-08
4.29349e-08
8.76037e-08
3.5702e-08
-2.19136e-08
-2.94078e-08
8.08631e-08
3.78417e-07
4.52916e-07
2.0077e-07
5.05404e-08
9.47899e-10
-3.5903e-08
1.42241e-07
6.48406e-07
8.07663e-07
1.87058e-07
4.22027e-07
8.83051e-08
-2.45361e-08
-1.29745e-08
-1.76073e-08
-3.21249e-08
-4.63213e-08
-4.05739e-08
-2.76054e-08
-1.94649e-08
1.70298e-08
8.81528e-08
2.43313e-07
6.52882e-07
7.36339e-07
3.82031e-07
3.62752e-07
6.97164e-08
1.08209e-08
-9.00368e-09
-9.21693e-09
3.58141e-08
6.96493e-08
1.28036e-08
4.15892e-08
1.94821e-07
1.06198e-07
3.33663e-09
-1.6752e-08
1.31364e-07
4.05796e-07
3.42855e-07
1.11496e-07
2.48115e-08
5.66152e-09
-2.32061e-08
1.17365e-07
6.69753e-07
9.32662e-07
1.72444e-07
1.9271e-07
-5.43675e-08
-3.83292e-08
-1.43587e-08
-2.1632e-08
-4.09052e-08
-8.28248e-08
-1.16728e-07
-9.47581e-08
-4.96932e-08
-1.23925e-08
7.16358e-08
1.52746e-07
2.8728e-07
4.11803e-07
4.16451e-07
6.33554e-07
4.16391e-07
1.53071e-08
-2.72959e-09
-5.41419e-08
-5.37996e-08
3.65557e-09
3.26349e-08
3.91557e-09
2.28467e-07
2.78898e-07
5.98494e-08
4.39006e-08
1.46268e-07
2.62598e-07
1.58417e-07
3.74726e-08
1.96565e-08
1.20228e-08
-1.43202e-08
1.16371e-07
6.22779e-07
9.61891e-07
1.83679e-07
1.48543e-08
-7.62241e-08
-1.25297e-08
-1.00383e-08
-2.61643e-08
-4.73947e-08
-9.31405e-08
-1.46083e-07
-1.31381e-07
-5.009e-08
-1.31375e-08
2.05139e-08
1.02486e-07
1.37117e-07
1.49582e-07
2.36295e-07
6.58872e-07
1.0949e-06
1.92137e-07
2.65566e-09
-1.20782e-08
-3.66956e-08
-5.9164e-08
-3.55717e-08
4.20657e-09
6.53802e-08
3.54315e-07
1.53686e-07
3.3825e-08
9.5506e-08
7.70674e-08
1.69307e-08
1.17318e-08
3.28776e-08
2.34841e-08
-7.66982e-09
1.28827e-07
5.23486e-07
8.45198e-07
2.21971e-07
-1.53773e-08
-4.41029e-09
1.18029e-08
-7.13299e-09
-2.27284e-08
-4.06797e-08
-7.72047e-08
-1.30905e-07
-1.31418e-07
-5.04726e-08
7.16222e-09
4.6978e-09
3.74627e-08
6.59566e-08
4.55103e-08
8.1902e-08
4.5184e-07
1.51708e-06
4.56918e-07
-1.13117e-08
1.74117e-07
8.0886e-08
-3.61485e-08
-5.74362e-08
-4.54948e-09
1.0712e-08
1.22843e-07
2.32719e-07
1.0097e-08
6.12334e-08
2.87336e-08
-1.75159e-08
-2.05067e-09
2.82537e-08
1.79665e-08
1.37279e-09
1.22741e-07
3.98688e-07
6.16464e-07
2.61871e-07
4.89536e-08
2.73337e-08
1.07159e-09
-5.28114e-09
-1.55885e-08
-2.56328e-08
-4.46311e-08
-8.83242e-08
-1.08331e-07
-4.86747e-08
1.04946e-08
8.74685e-09
1.20879e-08
2.42561e-08
8.21951e-09
6.61342e-09
1.93672e-07
1.17801e-06
4.21294e-07
-8.01737e-08
3.45224e-07
1.79204e-07
3.09266e-09
-2.55664e-08
-1.40573e-09
9.58706e-09
-4.98712e-09
1.35486e-07
5.46025e-08
3.33936e-08
1.02974e-07
1.46651e-08
-3.03295e-08
-1.61254e-08
-2.02193e-09
4.20425e-09
7.66346e-08
2.88537e-07
4.39427e-07
2.50903e-07
1.70894e-08
-1.48267e-08
9.40347e-09
2.85845e-09
-8.20959e-09
-9.32132e-09
-1.18142e-08
-3.82268e-08
-6.16767e-08
-2.34864e-08
1.90193e-08
9.46775e-09
9.51067e-09
1.82816e-08
2.60648e-09
-9.89883e-09
6.95185e-08
4.5004e-07
1.19894e-07
-1.27057e-07
2.89967e-07
1.69629e-07
2.20865e-08
-2.88606e-09
4.36735e-09
8.00606e-09
7.17224e-09
8.58959e-08
9.36542e-08
1.96618e-08
1.64817e-07
4.47696e-08
-8.82419e-08
-6.88386e-08
-1.29237e-08
-1.4596e-09
1.11902e-08
1.94244e-07
3.13218e-07
1.22445e-07
-2.67864e-08
-1.2574e-08
-1.05126e-09
6.64438e-10
-3.15949e-09
3.19761e-09
9.16592e-09
-6.79686e-09
-2.13013e-08
2.00727e-08
6.33202e-08
2.20533e-08
3.5828e-09
1.43772e-08
8.45993e-09
7.08489e-10
4.87429e-08
9.05367e-08
-7.93279e-09
-1.66209e-08
6.72639e-08
3.02278e-08
2.91302e-09
8.66065e-10
1.73502e-09
9.03036e-09
4.13878e-08
1.17841e-07
1.2155e-07
1.95301e-08
1.31856e-07
2.33748e-08
-1.25453e-07
-7.1381e-08
-1.38772e-08
-1.47263e-09
-8.4125e-09
1.04909e-07
1.65936e-07
4.5857e-08
4.9602e-09
-9.13788e-09
-9.20896e-09
5.48252e-11
-1.01279e-08
5.48259e-09
1.92779e-08
1.99533e-09
-4.88614e-09
3.35554e-08
1.24179e-07
7.70224e-08
5.64045e-09
3.38363e-09
1.0106e-08
1.81199e-08
4.17339e-08
1.88655e-08
-1.09094e-08
3.20043e-09
-8.64139e-09
-7.808e-09
-7.68562e-10
2.10235e-10
5.72125e-10
2.97136e-09
5.42432e-08
1.46266e-07
1.39552e-07
2.39967e-08
6.83658e-08
-7.06553e-09
-1.03281e-07
-5.49595e-08
-2.53543e-08
1.4093e-09
7.52924e-09
9.8479e-08
1.58824e-07
7.1451e-08
2.2652e-08
-1.35337e-08
1.78606e-08
1.91431e-08
-4.86072e-09
1.36437e-08
1.96942e-08
-6.36649e-09
-4.33002e-09
2.06198e-08
1.31371e-07
1.66336e-07
4.30689e-08
2.21984e-10
4.50874e-09
2.22291e-08
3.70903e-08
1.3874e-08
-8.77618e-09
-7.69883e-09
-7.27835e-09
-3.18027e-09
2.77121e-10
-3.01914e-11
-2.41432e-11
1.12087e-09
5.89393e-08
2.03619e-07
1.69284e-07
2.45884e-08
2.14749e-08
-1.16724e-08
-7.25206e-08
-6.90147e-08
-3.37179e-08
1.44829e-09
4.75555e-09
6.01386e-08
1.78455e-07
9.11999e-08
-1.31457e-08
7.33829e-08
1.58434e-07
9.40803e-08
3.06121e-08
3.94286e-09
-1.798e-08
-2.70826e-08
-1.6272e-08
4.18792e-09
7.83735e-08
2.08488e-07
1.26755e-07
1.47155e-08
9.90476e-10
1.932e-08
2.25315e-08
1.09123e-08
-3.05097e-09
-6.8382e-09
-1.11562e-08
-6.40873e-09
1.25865e-09
2.46234e-09
-1.63051e-10
4.8381e-11
5.7126e-08
2.76375e-07
2.65017e-07
4.18721e-08
9.74463e-09
2.14071e-08
-3.35962e-08
-4.94072e-08
-1.94149e-08
-2.15459e-10
6.26139e-10
1.3793e-08
4.3588e-08
5.32593e-09
6.23309e-08
2.24237e-07
1.77434e-07
3.23067e-08
-1.0082e-08
1.45141e-09
-2.66952e-08
-3.7899e-08
-5.95567e-10
1.81757e-09
2.1821e-08
1.61261e-07
2.1044e-07
7.31648e-08
1.31425e-09
6.75367e-09
2.12042e-09
9.87062e-10
-3.28973e-10
1.26931e-09
2.62705e-09
-1.83305e-09
-5.61979e-09
1.79105e-11
3.43245e-10
-2.43032e-09
4.21465e-08
2.61266e-07
3.20609e-07
5.40167e-08
1.58266e-08
6.46427e-08
-5.66824e-10
-3.19374e-08
-5.57816e-09
2.3374e-09
2.36939e-09
1.74041e-08
-1.89953e-09
-1.97938e-08
5.60615e-08
8.23245e-08
1.23661e-08
8.32001e-09
5.31261e-08
3.98977e-08
5.71818e-10
-1.45215e-08
-1.35755e-09
2.61388e-08
-4.70561e-09
5.24058e-08
1.66278e-07
1.34782e-07
3.47845e-08
-7.30176e-11
6.16428e-09
2.82351e-09
2.88481e-09
1.34842e-08
1.14063e-08
-6.52224e-09
-6.44871e-09
-2.50894e-09
-2.65935e-09
-1.74887e-09
2.91154e-08
1.3539e-07
1.4485e-07
3.21367e-09
1.49718e-08
4.51168e-08
7.52426e-09
-5.53731e-09
6.68501e-09
6.76261e-09
-8.9675e-10
-1.76817e-09
-1.78343e-08
-2.55656e-08
-5.70946e-09
2.61219e-09
1.92903e-08
2.70785e-08
1.22227e-08
2.95674e-09
5.30452e-09
-1.68814e-09
1.08524e-07
1.36171e-07
3.73192e-08
-7.90805e-09
4.70724e-08
7.54153e-08
4.28332e-08
1.28954e-08
5.20674e-09
-8.55963e-11
-4.17904e-09
3.72711e-09
9.14117e-10
-4.22371e-09
-2.72189e-09
-8.44709e-09
-7.4815e-09
1.02049e-08
3.66095e-08
6.48696e-08
3.49883e-08
-7.26773e-09
-4.78604e-09
-1.72045e-10
3.21388e-10
8.77474e-11
1.9078e-09
2.88096e-09
7.7209e-10
-1.94179e-09
-2.81997e-09
-2.60502e-09
-1.5927e-09
8.85554e-09
1.50805e-08
4.02055e-10
-1.45892e-08
-1.72135e-08
3.7262e-09
9.08232e-09
1.59891e-07
4.08581e-07
2.26018e-07
2.04337e-08
6.40256e-09
3.29909e-08
2.50659e-08
9.68324e-09
-5.31906e-09
-4.22338e-09
-4.11714e-10
-2.44723e-09
6.94039e-10
4.59596e-09
1.61264e-09
-2.39182e-09
-6.84627e-09
6.97255e-09
4.5309e-08
6.12032e-08
3.77078e-08
9.14368e-09
-2.04214e-09
-3.40101e-09
-1.63247e-09
-2.70675e-09
-2.87888e-09
1.22028e-09
1.27567e-09
-1.50443e-09
-7.15624e-10
1.92756e-09
3.3038e-09
1.52861e-09
-4.59685e-09
-1.01821e-08
-1.33549e-08
-7.92063e-09
9.47524e-09
5.81355e-09
3.11053e-08
2.58215e-07
3.01982e-07
6.21643e-08
6.01718e-09
5.13471e-08
4.35493e-08
1.14035e-08
-7.6525e-09
-5.06511e-10
3.39302e-09
-4.61757e-10
-5.44748e-11
-6.41723e-10
-6.34425e-10
-3.48552e-10
3.80685e-09
2.31843e-08
4.91403e-08
3.70207e-08
1.72381e-09
-3.69283e-09
-7.77567e-09
-6.20761e-09
6.86493e-09
1.58139e-08
1.05144e-08
1.16735e-09
-1.60259e-09
-2.9779e-09
-1.45416e-09
2.15497e-09
5.86524e-09
7.75108e-09
3.68466e-09
-1.00166e-08
-2.25282e-08
-1.71713e-08
-1.94211e-09
-7.01314e-10
-2.91126e-10
5.91652e-08
1.14506e-07
4.79888e-08
-6.05046e-09
1.86594e-08
3.18534e-08
9.24338e-09
-3.86352e-09
2.07381e-10
7.03053e-09
1.1334e-09
-2.24523e-10
2.5558e-09
2.03936e-10
-1.55128e-10
1.23218e-08
3.84412e-08
4.61881e-08
2.69203e-08
9.39892e-10
-6.61755e-09
-3.34939e-09
7.37184e-09
6.7859e-09
3.23765e-09
4.39011e-09
7.31512e-10
-6.78878e-10
-1.82337e-10
2.55682e-09
1.35745e-08
2.86267e-08
2.72208e-08
6.19847e-09
-1.07457e-08
-1.22689e-08
-6.46233e-09
-1.21569e-09
2.60314e-10
1.26624e-09
4.46473e-09
5.23392e-09
-1.16299e-09
1.87296e-10
1.01775e-08
1.48568e-08
6.47005e-09
8.60235e-10
2.45459e-10
2.09215e-10
-1.36843e-09
-6.56294e-09
-9.47373e-09
-1.031e-09
1.45391e-08
3.62902e-08
6.87155e-08
8.46056e-08
5.25539e-08
1.22802e-08
-2.60611e-09
-7.99508e-10
4.36818e-10
-2.36694e-09
1.14121e-09
1.04461e-08
1.45639e-08
1.29751e-08
1.16791e-08
9.42998e-09
3.30396e-09
-1.2672e-09
-6.53799e-10
-4.52617e-11
2.09082e-09
3.85271e-09
3.18053e-09
6.92093e-10
2.09357e-09
1.95426e-08
2.27929e-08
6.1668e-09
-4.3705e-09
-5.98831e-09
-3.04072e-09
9.8501e-10
2.13023e-09
-1.33887e-08
-7.52174e-09
-2.77912e-09
-3.43681e-10
1.87628e-09
9.15923e-09
1.72779e-08
1.64618e-08
1.09502e-08
8.14428e-09
5.34724e-09
4.43161e-09
5.53999e-09
2.82434e-09
3.80246e-10
4.1109e-09
7.12526e-09
3.98902e-09
2.18392e-10
1.44247e-09
4.05564e-09
1.92365e-09
-3.46873e-09
-5.95756e-09
-2.97006e-09
-6.27782e-11
5.03484e-11
2.76844e-09
4.10352e-09
-1.10051e-09
-5.93708e-09
-1.82127e-09
1.57777e-08
3.00015e-08
1.71476e-08
-5.13914e-09
-1.51477e-08
-1.49409e-08
-1.37684e-08
-1.51048e-08
-7.04861e-10
-1.29495e-09
-2.04391e-10
1.40553e-09
2.94847e-09
1.72081e-09
3.73691e-10
-1.85347e-09
-1.2235e-09
2.43015e-09
5.30301e-09
3.2889e-09
-5.94507e-09
-1.68422e-08
-1.2382e-08
-1.25738e-08
-1.47093e-08
-1.15667e-08
4.43129e-09
7.84276e-09
-4.40737e-09
-3.67655e-09
-2.93221e-10
-7.75828e-09
-1.16592e-08
-9.42197e-09
-8.06542e-09
-9.30619e-09
-8.95161e-09
-2.71274e-09
1.19636e-08
1.85795e-08
1.3244e-08
3.24953e-09
-4.23055e-09
-4.11292e-09
5.21094e-10
-1.37903e-09
1.44067e-09
3.84978e-09
-1.51418e-08
-8.69698e-09
1.41201e-09
1.27238e-08
6.84001e-09
-7.49432e-09
-1.24648e-08
-2.35164e-08
-2.38988e-08
-3.2562e-09
1.89284e-08
2.0433e-08
-2.17104e-09
-2.20402e-08
4.57968e-08
1.43539e-07
2.41931e-07
3.76e-07
5.38362e-07
3.87289e-07
-4.97156e-08
-7.49872e-08
-8.83243e-09
-3.44789e-08
-6.08304e-08
-6.38729e-08
-4.76112e-08
-1.93477e-08
4.82336e-08
1.52489e-07
2.42387e-07
2.52668e-07
1.85139e-07
8.78551e-08
2.22532e-08
-7.54838e-09
-2.23167e-08
-4.05497e-08
-6.45367e-09
-9.45327e-10
-2.07267e-08
-1.48355e-08
-1.30155e-09
4.07567e-09
-1.26945e-08
-3.24777e-08
-3.2062e-08
-3.35282e-08
-3.6293e-08
-2.12726e-08
-3.75445e-09
4.62786e-09
4.07523e-09
2.02798e-08
1.00018e-07
2.01372e-07
2.69502e-07
3.48647e-07
4.93047e-07
4.28064e-07
-3.09542e-08
-1.40287e-07
3.36404e-08
-1.35041e-08
-1.64747e-09
6.67851e-09
-1.46462e-08
-1.43618e-08
4.43193e-08
1.52034e-07
2.41097e-07
2.3713e-07
1.5216e-07
4.80198e-08
-8.33814e-09
1.92808e-09
2.4452e-08
-3.63063e-08
-3.85486e-08
-2.13287e-09
-3.77931e-09
-7.25899e-09
2.86326e-09
3.14021e-09
-5.33079e-09
-1.88516e-08
-1.84452e-08
-1.07198e-08
-1.00017e-08
-5.17271e-09
-5.84119e-10
9.63167e-09
2.06256e-08
3.77633e-08
7.9232e-08
1.07859e-07
9.36103e-08
8.20488e-08
1.21297e-07
1.18121e-07
-5.64762e-08
3.98017e-08
3.57434e-07
9.71395e-08
5.1769e-08
1.06306e-07
3.52403e-08
-4.32765e-09
1.72172e-09
3.1699e-08
7.60618e-08
7.01788e-08
1.27378e-08
-2.87523e-08
1.19122e-08
1.39326e-07
2.31434e-07
1.06795e-07
-3.65122e-08
1.67409e-08
4.24159e-08
-1.08853e-10
4.73348e-09
1.89226e-09
1.29727e-09
-7.29194e-09
-1.2232e-08
-9.31037e-11
8.02861e-09
7.13117e-09
1.51907e-09
8.26982e-09
2.79398e-08
5.53531e-08
8.00817e-08
7.05553e-08
2.00706e-08
-1.05896e-08
7.54832e-09
3.27893e-08
-2.89811e-08
1.34555e-07
7.06525e-07
3.518e-07
5.99024e-08
1.95978e-07
7.8513e-08
9.81652e-10
8.80794e-10
-4.87681e-10
1.55558e-08
1.76888e-08
-1.03501e-08
-1.8282e-08
6.99723e-08
3.03162e-07
5.52139e-07
4.49176e-07
1.27636e-07
1.18228e-07
2.28691e-07
1.6334e-08
3.22199e-09
2.13078e-09
6.27409e-10
-3.52546e-09
-1.39508e-08
-3.81611e-09
2.18388e-08
2.77419e-08
1.01305e-08
1.26337e-08
4.30138e-08
8.42647e-08
9.82276e-08
5.36966e-08
-1.84511e-08
-5.04637e-08
-2.30833e-08
1.18283e-08
-2.32374e-08
5.21538e-08
6.33375e-07
6.04435e-07
7.06416e-08
2.67049e-07
1.37497e-07
8.04756e-09
-1.45787e-09
-4.09559e-10
-9.74554e-10
-7.74437e-09
-2.49378e-08
-2.94097e-08
2.55886e-08
2.0713e-07
5.07018e-07
6.03754e-07
3.68828e-07
4.28796e-07
8.70386e-07
1.12032e-07
1.87022e-10
3.52123e-09
-3.14758e-09
-1.76347e-09
-1.1156e-08
-1.32986e-08
1.35381e-08
4.60642e-08
3.91399e-08
2.70449e-08
5.54835e-08
9.67048e-08
9.25709e-08
1.72922e-08
-4.56349e-08
-6.67232e-08
-2.46671e-08
2.46069e-08
-9.89959e-09
4.56728e-08
4.39709e-07
6.33823e-07
8.85114e-08
2.43103e-07
1.28593e-07
1.19699e-08
-7.90962e-09
-1.20354e-08
-2.68949e-08
-5.15195e-08
-5.94671e-08
-4.56481e-08
-1.60829e-08
8.42312e-08
2.98649e-07
5.05175e-07
5.05705e-07
8.80108e-07
2.07677e-06
5.16196e-07
5.35158e-09
2.1185e-09
-8.8192e-09
-7.05204e-09
-7.66984e-09
-1.4511e-08
-1.00607e-08
1.47946e-08
4.24999e-08
3.82024e-08
4.61545e-08
8.02966e-08
6.30893e-08
-1.64285e-08
-5.61339e-08
-6.75448e-08
3.27129e-09
3.86192e-08
-4.82537e-09
9.07319e-08
4.2259e-07
5.17985e-07
6.55794e-08
1.41084e-07
5.16427e-08
-2.70271e-09
-1.16708e-08
-2.78683e-08
-6.63441e-08
-1.12845e-07
-1.04059e-07
-4.00998e-08
-1.76406e-08
9.51338e-09
1.18897e-07
2.73433e-07
4.33229e-07
1.17829e-06
3.1056e-06
1.55205e-06
5.64348e-08
-1.63595e-09
-1.62034e-08
-1.50547e-08
-3.20633e-09
-3.29716e-09
-3.32511e-09
-7.32449e-09
-1.16591e-08
-9.26085e-09
-2.0127e-08
1.67095e-08
3.09456e-08
-1.09851e-08
-3.70598e-08
-5.39975e-08
3.64281e-08
3.24712e-08
-7.98783e-09
1.76492e-07
5.56766e-07
4.77044e-07
3.82499e-08
3.80272e-08
-5.87211e-09
-1.17629e-08
-1.03482e-08
-2.75383e-08
-7.81226e-08
-1.48876e-07
-1.56063e-07
-5.44615e-08
2.47247e-08
4.49457e-09
3.05054e-08
1.04744e-07
2.40916e-07
1.06848e-06
3.12504e-06
2.95114e-06
2.70237e-07
-3.53101e-09
-1.33712e-08
-5.91511e-09
8.36662e-09
5.07511e-09
7.83095e-09