/*--------------------------------*- C++ -*----------------------------------*\
| =========                 |                                                 |
| \\      /  F ield         | OpenFOAM: The Open Source CFD Toolbox           |
|  \\    /   O peration     | Version:  5.0                                   |
|   \\  /    A nd           | Web:      www.OpenFOAM.org                      |
|    \\/     M anipulation  |                                                 |
\*---------------------------------------------------------------------------*/
FoamFile
{
    version     2.0;
    format      ascii;
    class       volScalarField;
    location    "50.4676134421789371";
    object      TMean;
}
// * * * * * * * * * * * * * * * * * * * * * * * * * * * * * * * * * * * * * //

dimensions      [0 0 0 1 0 0 0];

internalField   nonuniform List<scalar> 
60000
(
442.709
441.253
438.312
434.91
433.162
433.602
434.537
435.535
437.567
440.289
442.229
442.686
441.994
441.091
440.621
440.356
440.226
440.712
442.214
444.713
447.88
451.191
453.824
455.493
456.621
457.559
458.084
457.375
454.969
451.909
450.211
450.612
451.991
452.451
450.155
445.476
441.869
441.416
442.449
443.012
333.647
332.993
329.748
325.115
321.823
320.881
320.758
320.736
322.167
325.815
329.671
331.66
331.429
330.216
329.449
329.063
328.386
327.701
328.042
330.377
334.759
340.612
346.483
350.997
354.15
356.719
358.656
358.469
354.783
348.879
344.375
343.593
345.874
348.297
346.559
339.586
332.36
329.574
330.691
332.564
293.173
294.254
293.657
291.762
290.254
289.436
288.263
286.585
285.291
285.507
287.053
288.846
290.011
290.577
291.125
291.779
291.728
290.076
287.197
285.162
285.91
289.557
294.825
300.014
304.063
307.12
309.409
310.071
307.798
303.208
298.997
297.188
298.121
300.683
301.556
298.534
294.117
291.335
290.873
291.74
287.263
288.09
288.565
288.419
288.427
288.734
288.505
287.213
285.352
283.746
282.69
282.455
283.175
284.573
286.316
288.191
289.381
288.622
285.182
280.287
277.214
277.922
281.663
286.652
291.171
294.428
296.557
297.353
295.807
292.219
288.788
287.179
287.592
289.512
290.984
290.128
288.209
287.113
286.944
286.936
291.03
291.182
291.512
291.668
291.882
292.374
292.787
292.54
291.544
290.314
288.982
287.677
287.193
287.987
289.649
291.702
293.454
293.861
291.701
286.77
281.818
280.285
282.702
287.295
291.818
294.862
296.604
297.657
297.124
294.355
291.151
289.456
289.581
291.062
292.538
292.318
291.112
290.634
290.992
291.171
295.132
295.063
295.116
295.111
295.093
295.286
295.648
295.855
295.632
295.174
294.598
293.756
292.986
292.944
293.708
294.969
296.354
297.379
296.772
293.269
288.398
285.815
287.175
291.022
294.779
296.9
297.568
298.04
298.614
297.903
295.834
294.102
293.64
294.327
295.449
295.759
295.066
294.56
294.795
295.144
297.202
297.187
297.21
297.202
297.11
297.061
297.163
297.33
297.364
297.26
297.085
296.761
296.367
296.195
296.375
296.82
297.452
298.356
298.773
296.929
293.126
290.554
291.381
294.33
296.738
297.803
298.061
297.96
298.087
298.373
298.064
297.242
296.626
296.592
297.006
297.355
297.238
296.944
296.935
297.12
297.902
297.916
297.944
297.976
297.957
297.898
297.867
297.908
297.95
297.943
297.882
297.728
297.542
297.468
297.54
297.664
297.779
298.198
298.897
298.333
295.864
293.902
294.463
296.323
297.561
297.99
298.13
298.171
298.115
298.135
298.216
298.151
297.935
297.757
297.761
297.866
297.912
297.859
297.822
297.859
298.091
298.098
298.11
298.128
298.135
298.126
298.107
298.104
298.116
298.121
298.106
298.027
297.919
297.887
297.948
298.014
297.974
298.022
298.47
298.526
297.275
296.077
296.367
297.32
297.9
298.094
298.132
298.148
298.159
298.143
298.147
298.164
298.163
298.118
298.076
298.069
298.085
298.089
298.084
298.084
298.138
298.137
298.14
298.145
298.148
298.149
298.148
298.147
298.149
298.152
298.154
298.122
298.069
298.049
298.084
298.129
298.113
298.066
298.205
298.349
297.893
297.31
297.403
297.813
298.053
298.131
298.148
298.148
298.15
298.151
298.148
298.149
298.151
298.153
298.147
298.14
298.137
298.139
298.142
298.139
298.148
298.148
298.149
298.15
298.15
298.15
298.15
298.149
298.149
298.152
298.153
298.147
298.125
298.118
298.13
298.147
298.152
298.135
298.146
298.209
298.101
297.887
297.896
298.036
298.119
298.142
298.148
298.15
298.15
298.15
298.15
298.15
298.15
298.15
298.15
298.15
298.15
298.149
298.15
298.149
298.15
298.15
298.15
298.15
298.15
298.15
298.15
298.15
298.15
298.15
298.151
298.15
298.144
298.144
298.146
298.149
298.152
298.151
298.148
298.16
298.146
298.092
298.085
298.118
298.142
298.149
298.15
298.15
298.15
298.15
298.15
298.15
298.15
298.15
298.15
298.15
298.15
298.15
298.15
298.15
298.15
298.15
298.15
298.15
298.15
298.15
298.15
298.15
298.15
298.15
298.15
298.151
298.148
298.149
298.15
298.15
298.15
298.149
298.149
298.151
298.152
298.141
298.139
298.144
298.149
298.15
298.15
298.15
298.15
298.15
298.15
298.15
298.15
298.15
298.15
298.15
298.15
298.15
298.15
298.15
298.15
298.15
298.15
298.15
298.15
298.15
298.15
298.15
298.15
298.15
298.15
298.15
298.15
298.15
298.15
298.15
298.15
298.15
298.15
298.15
298.15
298.15
298.15
298.15
298.15
298.15
298.15
298.15
298.15
298.15
298.15
298.15
298.15
298.15
298.15
298.15
298.15
298.15
298.15
298.15
298.15
298.15
298.15
298.15
298.15
298.15
298.15
298.15
298.15
298.15
298.15
298.15
298.15
298.15
298.15
298.15
298.15
298.15
298.15
298.15
298.15
298.15
298.15
298.15
298.15
298.15
298.15
298.15
298.15
298.15
298.15
298.15
298.15
298.15
298.15
298.15
298.15
298.15
298.15
298.15
298.15
298.15
298.15
298.15
298.15
298.15
298.15
298.15
298.15
298.15
298.15
298.15
298.15
298.15
298.15
298.15
298.15
298.15
298.15
298.15
298.15
298.15
298.15
298.15
298.15
298.15
298.15
298.15
298.15
298.15
298.15
298.15
298.15
298.15
298.15
298.15
298.15
298.15
298.15
298.15
298.15
298.15
298.15
298.15
298.15
298.15
298.15
298.15
298.15
298.15
298.15
298.15
298.15
298.15
298.15
298.15
298.15
298.15
298.15
298.15
298.15
298.15
298.15
298.15
298.15
298.15
298.15
298.15
298.15
298.15
298.15
298.15
298.15
298.15
298.15
298.15
298.15
298.15
298.15
298.15
298.15
298.15
298.15
298.15
298.15
298.15
298.15
298.15
298.15
298.15
298.15
298.15
298.15
298.15
298.15
298.15
298.15
298.15
298.15
298.15
298.15
298.15
298.15
298.15
298.15
298.15
298.15
298.15
298.15
298.15
298.15
298.15
298.15
298.15
298.15
298.15
298.15
298.15
298.15
298.15
298.15
298.15
298.15
298.15
298.15
298.15
298.15
298.15
298.15
298.15
298.15
298.15
298.15
298.15
298.15
298.15
298.15
298.15
298.15
298.15
298.15
298.15
298.15
298.15
298.15
298.15
298.15
298.15
298.15
298.15
298.15
298.15
298.15
298.15
298.15
298.15
298.15
298.15
298.15
298.15
298.15
298.15
298.15
298.15
298.15
298.15
298.15
298.15
298.15
298.15
298.15
298.15
298.15
298.15
298.15
298.15
298.15
298.15
298.15
298.15
298.15
298.15
298.15
298.15
298.15
298.15
298.15
298.15
298.15
298.15
298.15
298.15
298.15
298.15
298.15
298.15
298.15
298.15
298.15
298.15
298.15
298.15
298.15
298.15
298.15
298.15
298.15
298.15
298.15
298.15
298.15
298.15
298.15
298.15
298.15
298.15
298.15
298.15
298.15
298.15
298.15
298.15
298.15
298.15
298.15
298.15
298.15
298.15
298.15
298.15
298.15
298.15
298.15
298.15
298.15
298.15
298.15
298.15
298.15
298.15
298.15
298.15
298.15
298.15
298.15
298.15
298.15
298.15
298.15
298.15
298.15
298.15
298.15
298.15
298.15
298.15
298.15
298.15
298.15
298.15
298.15
298.15
298.15
298.15
298.15
298.15
298.15
298.15
298.15
298.15
298.15
298.15
298.15
298.15
298.15
298.15
298.15
298.15
298.15
298.15
298.15
298.15
298.15
298.15
298.15
298.15
298.15
298.15
298.15
298.15
298.15
298.15
298.15
298.15
298.15
298.15
298.15
298.15
298.15
298.15
298.15
298.15
298.15
298.15
298.15
298.15
298.15
298.15
298.15
298.15
298.15
298.15
298.15
298.15
298.15
298.15
298.15
298.15
298.15
298.15
298.15
298.15
298.15
298.15
298.15
298.15
298.15
298.15
298.15
298.15
298.15
298.15
298.15
298.15
298.15
298.15
298.15
298.15
298.15
298.15
298.15
298.15
298.15
298.15
298.15
298.15
298.15
298.15
298.15
298.15
298.15
298.15
298.15
298.15
298.15
298.15
298.15
298.15
298.15
298.15
298.15
298.15
298.15
298.15
298.15
298.15
298.15
298.15
298.15
298.15
298.15
298.15
298.15
298.15
298.15
298.15
298.15
298.15
298.15
298.15
298.15
298.15
298.15
298.15
298.15
298.15
298.15
298.15
298.15
298.15
298.15
298.15
298.15
298.15
298.15
298.15
298.15
298.15
298.15
298.15
433.766
435.311
436.522
438.086
440.178
441.658
441.618
440.574
440.118
441.179
443.065
444.949
446.675
448.402
450.042
451.337
452.221
452.632
452.324
451.119
449.843
450.031
451.903
453.969
455.339
456.089
456.255
455.786
455.025
454.7
455.148
455.841
456.236
455.77
452.072
443.511
434.49
430.677
430.851
432.081
319.365
321.893
323.846
325.951
328.644
330.885
331.084
329.333
327.756
328.214
330.595
333.56
336.333
339.2
342.277
345.119
347.403
348.903
348.998
346.834
343.265
341.418
343.486
347.924
352.009
354.691
355.81
355.282
353.559
352.054
352.013
352.965
354.068
354.901
351.399
339.741
325.441
316.741
314.866
316.557
285.121
286.889
288.433
290.215
292.351
293.99
294.018
292.299
290.24
289.269
289.811
291.483
293.536
295.79
298.29
300.719
302.753
304.284
304.712
302.768
298.629
295.089
294.899
298.071
302.333
305.624
307.207
307.082
305.662
304.009
303.356
303.607
304.218
305.804
305.883
300.81
293.136
287.009
283.863
283.612
284.548
285.189
286.18
287.76
289.886
291.665
291.894
290.147
287.529
285.681
285.191
285.881
287.336
289.227
291.303
293.188
294.566
295.65
296.283
294.845
290.644
286.322
284.936
286.791
290.157
293.069
294.437
294.212
292.96
291.581
291.078
291.377
291.638
292.637
293.651
292.126
288.926
286.537
285.245
284.52
289.937
289.898
290.392
291.568
293.265
294.89
295.616
294.663
292.262
290.005
289.049
289.337
290.404
291.919
293.593
295.072
295.992
296.62
297.508
297.355
294.19
289.745
287.649
288.812
291.628
294.242
295.575
295.457
294.34
293.017
292.408
292.704
292.981
293.503
294.257
293.495
291.577
290.436
290.325
290.23
294.215
294.045
294.209
294.899
295.908
296.885
297.548
297.457
296.151
294.283
293.139
293.124
293.824
294.838
295.947
296.959
297.517
297.599
298.126
298.988
297.822
294.486
292.206
292.7
294.824
296.893
298.05
298.274
297.848
297.039
296.318
296.171
296.19
296.279
296.821
296.594
295.077
293.97
293.983
294.263
296.494
296.426
296.472
296.81
297.288
297.7
298.02
298.18
297.799
296.779
295.815
295.551
295.893
296.492
297.138
297.728
298.054
297.92
297.898
298.644
298.768
297.01
295.248
295.356
296.682
297.85
298.378
298.458
298.388
298.276
298.072
297.929
297.854
297.669
297.831
298.042
297.333
296.394
296.189
296.399
297.497
297.498
297.526
297.671
297.863
298
298.093
298.205
298.186
297.815
297.259
296.951
297.036
297.338
297.682
297.98
298.166
298.093
297.951
298.268
298.58
297.813
296.77
296.802
297.501
298.006
298.196
298.219
298.189
298.178
298.173
298.158
298.175
298.097
298.043
298.202
298.099
297.639
297.387
297.427
297.911
297.922
297.943
297.996
298.062
298.102
298.119
298.157
298.197
298.11
297.879
297.684
297.674
297.8
297.952
298.078
298.173
298.16
298.064
298.17
298.354
298.03
297.508
297.532
297.862
298.072
298.139
298.153
298.152
298.148
298.149
298.147
298.155
298.158
298.123
298.153
298.184
298.065
297.929
297.896
298.074
298.075
298.089
298.109
298.127
298.138
298.14
298.145
298.166
298.158
298.085
298
297.988
298.035
298.089
298.125
298.157
298.166
298.124
298.146
298.23
298.107
297.881
297.895
298.032
298.114
298.141
298.148
298.15
298.15
298.15
298.149
298.149
298.153
298.148
298.147
298.162
298.149
298.108
298.082
298.132
298.131
298.133
298.14
298.146
298.149
298.149
298.149
298.153
298.156
298.138
298.114
298.109
298.123
298.139
298.145
298.149
298.153
298.146
298.146
298.174
298.138
298.057
298.062
298.109
298.137
298.148
298.15
298.15
298.15
298.15
298.15
298.15
298.15
298.15
298.148
298.151
298.153
298.146
298.139
298.146
298.147
298.146
298.149
298.15
298.15
298.15
298.15
298.151
298.151
298.149
298.145
298.142
298.144
298.149
298.149
298.15
298.151
298.15
298.147
298.155
298.146
298.125
298.126
298.14
298.148
298.15
298.15
298.15
298.15
298.15
298.15
298.15
298.15
298.15
298.15
298.15
298.15
298.15
298.148
298.15
298.15
298.15
298.15
298.15
298.15
298.15
298.15
298.15
298.15
298.15
298.15
298.15
298.15
298.15
298.15
298.15
298.15
298.15
298.15
298.151
298.148
298.145
298.144
298.148
298.15
298.15
298.15
298.15
298.15
298.15
298.15
298.15
298.15
298.15
298.15
298.15
298.15
298.15
298.15
298.15
298.15
298.15
298.15
298.15
298.15
298.15
298.15
298.15
298.15
298.15
298.15
298.15
298.15
298.15
298.15
298.15
298.15
298.15
298.15
298.15
298.15
298.15
298.15
298.15
298.15
298.15
298.15
298.15
298.15
298.15
298.15
298.15
298.15
298.15
298.15
298.15
298.15
298.15
298.15
298.15
298.15
298.15
298.15
298.15
298.15
298.15
298.15
298.15
298.15
298.15
298.15
298.15
298.15
298.15
298.15
298.15
298.15
298.15
298.15
298.15
298.15
298.15
298.15
298.15
298.15
298.15
298.15
298.15
298.15
298.15
298.15
298.15
298.15
298.15
298.15
298.15
298.15
298.15
298.15
298.15
298.15
298.15
298.15
298.15
298.15
298.15
298.15
298.15
298.15
298.15
298.15
298.15
298.15
298.15
298.15
298.15
298.15
298.15
298.15
298.15
298.15
298.15
298.15
298.15
298.15
298.15
298.15
298.15
298.15
298.15
298.15
298.15
298.15
298.15
298.15
298.15
298.15
298.15
298.15
298.15
298.15
298.15
298.15
298.15
298.15
298.15
298.15
298.15
298.15
298.15
298.15
298.15
298.15
298.15
298.15
298.15
298.15
298.15
298.15
298.15
298.15
298.15
298.15
298.15
298.15
298.15
298.15
298.15
298.15
298.15
298.15
298.15
298.15
298.15
298.15
298.15
298.15
298.15
298.15
298.15
298.15
298.15
298.15
298.15
298.15
298.15
298.15
298.15
298.15
298.15
298.15
298.15
298.15
298.15
298.15
298.15
298.15
298.15
298.15
298.15
298.15
298.15
298.15
298.15
298.15
298.15
298.15
298.15
298.15
298.15
298.15
298.15
298.15
298.15
298.15
298.15
298.15
298.15
298.15
298.15
298.15
298.15
298.15
298.15
298.15
298.15
298.15
298.15
298.15
298.15
298.15
298.15
298.15
298.15
298.15
298.15
298.15
298.15
298.15
298.15
298.15
298.15
298.15
298.15
298.15
298.15
298.15
298.15
298.15
298.15
298.15
298.15
298.15
298.15
298.15
298.15
298.15
298.15
298.15
298.15
298.15
298.15
298.15
298.15
298.15
298.15
298.15
298.15
298.15
298.15
298.15
298.15
298.15
298.15
298.15
298.15
298.15
298.15
298.15
298.15
298.15
298.15
298.15
298.15
298.15
298.15
298.15
298.15
298.15
298.15
298.15
298.15
298.15
298.15
298.15
298.15
298.15
298.15
298.15
298.15
298.15
298.15
298.15
298.15
298.15
298.15
298.15
298.15
298.15
298.15
298.15
298.15
298.15
298.15
298.15
298.15
298.15
298.15
298.15
298.15
298.15
298.15
298.15
298.15
298.15
298.15
298.15
298.15
298.15
298.15
298.15
298.15
298.15
298.15
298.15
298.15
298.15
298.15
298.15
298.15
298.15
298.15
298.15
298.15
298.15
298.15
298.15
298.15
298.15
298.15
298.15
298.15
298.15
298.15
298.15
298.15
298.15
298.15
298.15
298.15
298.15
298.15
298.15
298.15
298.15
298.15
298.15
298.15
298.15
298.15
298.15
298.15
298.15
298.15
298.15
298.15
298.15
298.15
298.15
298.15
298.15
298.15
298.15
298.15
298.15
298.15
298.15
298.15
298.15
298.15
298.15
298.15
298.15
298.15
298.15
298.15
298.15
298.15
298.15
298.15
298.15
298.15
298.15
298.15
298.15
298.15
298.15
298.15
298.15
298.15
298.15
298.15
298.15
298.15
298.15
298.15
298.15
298.15
298.15
298.15
298.15
298.15
298.15
298.15
298.15
298.15
298.15
298.15
298.15
298.15
298.15
298.15
298.15
298.15
298.15
298.15
298.15
298.15
298.15
298.15
298.15
298.15
298.15
298.15
298.15
298.15
298.15
298.15
298.15
298.15
298.15
298.15
298.15
298.15
298.15
298.15
298.15
298.15
298.15
298.15
298.15
298.15
298.15
298.15
298.15
298.15
298.15
298.15
298.15
298.15
298.15
298.15
298.15
298.15
298.15
298.15
298.15
298.15
298.15
298.15
298.15
298.15
298.15
298.15
298.15
298.15
298.15
298.15
298.15
298.15
298.15
298.15
298.15
298.15
298.15
298.15
298.15
298.15
298.15
435.216
436.277
437.163
438.712
440.759
442.5
443.519
443.938
444.101
444.577
445.903
448.03
450.439
452.573
454.138
455.218
455.986
456.367
455.955
454.243
451.152
447.828
446.297
446.983
448.378
449.599
450.61
451.617
452.936
454.476
455.624
455.777
454.858
453.096
450.018
444.876
438.85
434.335
432.722
433.595
318.335
320.768
322.263
323.848
326.218
328.806
330.824
332.078
332.729
333.327
334.845
337.841
341.922
346.1
349.549
352.102
353.938
355.028
354.767
352.254
347.154
340.698
336.158
336.202
339.418
342.84
345.273
346.921
348.668
350.929
353.02
353.834
353.042
351.201
347.634
340.628
331
321.827
316.209
315.749
280.486
281.898
283.141
284.047
285.14
286.517
287.86
288.928
289.65
290.153
290.968
292.704
295.472
298.789
301.944
304.471
306.225
307.267
307.277
305.359
301.306
296.207
292.005
290.729
292.707
295.892
298.441
299.992
301.224
302.713
304.198
304.906
304.657
304.284
303.528
300.978
296.469
290.638
284.552
280.708
279.369
278.898
279.594
280.454
281.254
282.01
282.626
282.968
283.106
283.194
283.572
284.675
286.586
289.034
291.549
293.688
295.166
296.095
296.528
295.299
291.624
287.063
283.811
282.756
283.563
285.307
286.977
288.174
289.278
290.664
292.078
292.779
292.47
292.168
292.26
291.973
290.993
289.258
286.226
282.128
286.061
284.476
284.578
285.355
286.19
286.923
287.428
287.518
287.259
286.894
286.785
287.369
288.749
290.678
292.745
294.578
295.891
296.659
297.427
297.553
295.015
290.503
287.165
286.295
286.917
287.927
288.844
289.604
290.517
291.791
293.2
294.149
294.04
293.458
293.113
292.855
292.69
292.519
291.573
289.085
292.029
290.386
290.083
290.598
291.277
291.926
292.452
292.693
292.548
292.096
291.646
291.67
292.4
293.691
295.169
296.473
297.417
297.774
297.93
298.657
298.479
295.774
292.728
291.622
292.062
292.848
293.472
293.983
294.613
295.414
296.238
296.917
297.073
296.718
296.267
295.752
295.368
295.31
295.131
294.035
295.526
294.436
294.051
294.281
294.666
295.06
295.443
295.75
295.875
295.722
295.339
295.061
295.243
295.903
296.742
297.427
297.882
298.111
298.01
298.095
298.591
298.04
296.39
295.378
295.466
295.969
296.432
296.817
297.203
297.573
297.833
298.02
298.113
298.031
297.886
297.606
297.219
297.026
296.978
296.543
297.162
296.623
296.363
296.424
296.583
296.758
296.963
297.19
297.37
297.424
297.318
297.13
297.08
297.28
297.607
297.87
298.026
298.133
298.149
298.099
298.238
298.249
297.684
297.142
297.102
297.338
297.591
297.804
297.978
298.101
298.157
298.17
298.183
298.17
298.162
298.131
297.981
297.839
297.8
297.616
297.822
297.608
297.496
297.508
297.559
297.617
297.704
297.815
297.919
297.969
297.966
297.937
297.924
297.962
298.023
298.078
298.113
298.142
298.15
298.138
298.169
298.19
298.012
297.797
297.769
297.864
297.968
298.052
298.112
298.142
298.154
298.153
298.154
298.153
298.153
298.162
298.139
298.099
298.088
298.013
298.057
297.983
297.955
297.963
297.977
297.992
298.02
298.056
298.093
298.113
298.115
298.117
298.128
298.136
298.139
298.142
298.143
298.15
298.15
298.146
298.154
298.162
298.107
298.034
298.023
298.055
298.091
298.12
298.139
298.146
298.149
298.15
298.15
298.15
298.15
298.151
298.149
298.144
298.151
298.128
298.128
298.106
298.103
298.109
298.114
298.115
298.122
298.131
298.139
298.145
298.144
298.146
298.148
298.15
298.15
298.15
298.15
298.15
298.15
298.149
298.151
298.153
298.138
298.116
298.114
298.123
298.135
298.143
298.148
298.15
298.15
298.15
298.15
298.15
298.15
298.151
298.149
298.149
298.153
298.151
298.145
298.139
298.139
298.145
298.145
298.144
298.147
298.148
298.149
298.15
298.15
298.15
298.15
298.15
298.15
298.15
298.15
298.15
298.15
298.15
298.15
298.152
298.146
298.143
298.142
298.145
298.148
298.15
298.15
298.15
298.15
298.15
298.15
298.15
298.15
298.15
298.15
298.15
298.15
298.15
298.149
298.148
298.149
298.15
298.15
298.15
298.15
298.15
298.15
298.15
298.15
298.15
298.15
298.15
298.15
298.15
298.15
298.15
298.15
298.15
298.15
298.15
298.149
298.148
298.149
298.15
298.15
298.15
298.15
298.15
298.15
298.15
298.15
298.15
298.15
298.15
298.15
298.15
298.15
298.15
298.15
298.15
298.15
298.15
298.15
298.15
298.15
298.15
298.15
298.15
298.15
298.15
298.15
298.15
298.15
298.15
298.15
298.15
298.15
298.15
298.15
298.15
298.15
298.15
298.15
298.15
298.15
298.15
298.15
298.15
298.15
298.15
298.15
298.15
298.15
298.15
298.15
298.15
298.15
298.15
298.15
298.15
298.15
298.15
298.15
298.15
298.15
298.15
298.15
298.15
298.15
298.15
298.15
298.15
298.15
298.15
298.15
298.15
298.15
298.15
298.15
298.15
298.15
298.15
298.15
298.15
298.15
298.15
298.15
298.15
298.15
298.15
298.15
298.15
298.15
298.15
298.15
298.15
298.15
298.15
298.15
298.15
298.15
298.15
298.15
298.15
298.15
298.15
298.15
298.15
298.15
298.15
298.15
298.15
298.15
298.15
298.15
298.15
298.15
298.15
298.15
298.15
298.15
298.15
298.15
298.15
298.15
298.15
298.15
298.15
298.15
298.15
298.15
298.15
298.15
298.15
298.15
298.15
298.15
298.15
298.15
298.15
298.15
298.15
298.15
298.15
298.15
298.15
298.15
298.15
298.15
298.15
298.15
298.15
298.15
298.15
298.15
298.15
298.15
298.15
298.15
298.15
298.15
298.15
298.15
298.15
298.15
298.15
298.15
298.15
298.15
298.15
298.15
298.15
298.15
298.15
298.15
298.15
298.15
298.15
298.15
298.15
298.15
298.15
298.15
298.15
298.15
298.15
298.15
298.15
298.15
298.15
298.15
298.15
298.15
298.15
298.15
298.15
298.15
298.15
298.15
298.15
298.15
298.15
298.15
298.15
298.15
298.15
298.15
298.15
298.15
298.15
298.15
298.15
298.15
298.15
298.15
298.15
298.15
298.15
298.15
298.15
298.15
298.15
298.15
298.15
298.15
298.15
298.15
298.15
298.15
298.15
298.15
298.15
298.15
298.15
298.15
298.15
298.15
298.15
298.15
298.15
298.15
298.15
298.15
298.15
298.15
298.15
298.15
298.15
298.15
298.15
298.15
298.15
298.15
298.15
298.15
298.15
298.15
298.15
298.15
298.15
298.15
298.15
298.15
298.15
298.15
298.15
298.15
298.15
298.15
298.15
298.15
298.15
298.15
298.15
298.15
298.15
298.15
298.15
298.15
298.15
298.15
298.15
298.15
298.15
298.15
298.15
298.15
298.15
298.15
298.15
298.15
298.15
298.15
298.15
298.15
298.15
298.15
298.15
298.15
298.15
298.15
298.15
298.15
298.15
298.15
298.15
298.15
298.15
298.15
298.15
298.15
298.15
298.15
298.15
298.15
298.15
298.15
298.15
298.15
298.15
298.15
298.15
298.15
298.15
298.15
298.15
298.15
298.15
298.15
298.15
298.15
298.15
298.15
298.15
298.15
298.15
298.15
298.15
298.15
298.15
298.15
298.15
298.15
298.15
298.15
298.15
298.15
298.15
298.15
298.15
298.15
298.15
298.15
298.15
298.15
298.15
298.15
298.15
298.15
298.15
298.15
298.15
298.15
298.15
298.15
298.15
298.15
298.15
298.15
298.15
298.15
298.15
298.15
298.15
298.15
298.15
298.15
298.15
298.15
298.15
298.15
298.15
298.15
298.15
298.15
298.15
298.15
298.15
298.15
298.15
298.15
298.15
298.15
298.15
298.15
298.15
298.15
298.15
298.15
298.15
298.15
298.15
298.15
298.15
298.15
298.15
298.15
298.15
298.15
298.15
298.15
298.15
298.15
298.15
298.15
298.15
298.15
298.15
298.15
298.15
298.15
298.15
298.15
298.15
298.15
298.15
298.15
298.15
298.15
298.15
298.15
298.15
298.15
298.15
298.15
298.15
298.15
298.15
298.15
298.15
298.15
298.15
298.15
298.15
298.15
298.15
298.15
298.15
298.15
298.15
298.15
298.15
298.15
298.15
298.15
298.15
298.15
298.15
298.15
298.15
298.15
298.15
298.15
298.15
298.15
298.15
298.15
298.15
298.15
298.15
298.15
298.15
298.15
298.15
298.15
298.15
298.15
298.15
298.15
298.15
298.15
298.15
298.15
298.15
298.15
298.15
298.15
298.15
298.15
298.15
298.15
298.15
298.15
298.15
298.15
298.15
298.15
298.15
446.983
447.532
446.911
446.164
446.052
446.46
446.897
447.044
446.829
446.367
446.167
446.848
448.591
450.959
453.307
455.192
456.527
457.341
457.518
456.649
454.497
450.959
446.648
443.442
442.195
442.276
443.302
445.231
447.864
450.463
452.144
452.362
451.237
449.449
447.505
445.441
443.652
442.895
443.558
445.293
335.604
337.917
337.625
336.222
335.548
336.1
337.257
338.126
338.139
337.178
335.973
335.819
337.778
341.764
346.598
350.957
354.223
356.358
357.371
356.43
352.934
346.711
338.473
331.502
328.667
329.284
331.247
333.904
337.657
342.01
345.619
347.244
346.714
344.922
342.427
338.871
334.593
331.023
329.839
331.927
288.112
290.055
290.535
289.631
288.834
289.189
290.727
292.649
293.94
293.845
292.46
290.9
290.694
292.745
296.601
300.872
304.374
306.63
308.002
307.882
305.357
300.456
294.083
288.367
285.389
285.66
287.415
289.332
291.689
294.479
297.06
298.767
299.491
299.758
299.618
298.426
295.968
292.571
288.95
287.085
280.892
280.475
280.506
279.783
278.841
278.763
280.085
282.408
284.77
286.053
285.616
283.997
282.688
283.067
285.397
288.771
291.946
293.962
295.287
295.799
294.078
289.85
284.708
280.769
278.691
278.439
279.516
281.114
283.159
285.372
287.077
287.932
288.248
288.769
289.583
290.059
289.81
288.766
286.528
283.273
287.331
285.545
284.685
283.582
282.187
281.45
282.119
284.071
286.591
288.633
289.227
288.292
286.964
286.692
288.081
290.635
293.36
295.104
296.116
297.193
296.887
293.313
287.984
284.222
282.706
282.404
282.924
284.218
286.21
288.446
290.181
290.935
290.777
290.544
290.816
291.357
291.804
292.029
291.618
289.95
294.017
292.869
291.957
290.66
288.948
287.697
287.664
288.821
290.68
292.561
293.637
293.429
292.515
292.107
292.855
294.401
296.107
297.263
297.544
297.877
298.912
298.228
294.204
290.223
288.605
288.372
288.654
289.52
291.043
292.813
294.274
295.152
295.284
294.894
294.558
294.532
294.744
295.106
295.323
295.047
296.961
296.745
296.451
295.655
294.298
293.061
292.677
293.219
294.304
295.532
296.457
296.598
296.086
295.701
295.958
296.634
297.335
297.873
298.08
297.893
298.074
298.76
297.672
295.011
293.355
293.021
293.213
293.748
294.664
295.707
296.553
297.119
297.387
297.34
297.098
296.874
296.801
296.932
297.093
297.125
297.807
297.854
297.922
297.697
297.037
296.271
295.926
296.151
296.686
297.26
297.729
297.897
297.691
297.42
297.403
297.612
297.855
298.022
298.135
298.148
298.06
298.264
298.25
297.244
296.197
295.852
295.969
296.307
296.776
297.241
297.587
297.814
297.951
298.002
297.968
297.877
297.795
297.799
297.836
297.837
298.047
298.067
298.14
298.14
297.946
297.646
297.478
297.535
297.722
297.917
298.063
298.142
298.115
298.009
297.951
297.983
298.057
298.111
298.138
298.152
298.134
298.163
298.208
297.928
297.489
297.286
297.344
297.527
297.735
297.901
298.005
298.063
298.099
298.121
298.127
298.115
298.096
298.093
298.095
298.076
298.125
298.125
298.144
298.159
298.132
298.054
297.997
298.005
298.057
298.106
298.133
298.148
298.154
298.137
298.113
298.11
298.123
298.14
298.146
298.151
298.147
298.151
298.171
298.104
297.96
297.881
297.908
297.981
298.056
298.103
298.13
298.141
298.144
298.146
298.148
298.148
298.145
298.147
298.148
298.141
298.146
298.145
298.148
298.152
298.148
298.139
298.128
298.129
298.138
298.147
298.149
298.15
298.152
298.15
298.145
298.145
298.146
298.149
298.15
298.15
298.149
298.15
298.156
298.141
298.103
298.084
298.093
298.117
298.135
298.147
298.15
298.15
298.15
298.15
298.15
298.15
298.15
298.15
298.151
298.149
298.149
298.149
298.15
298.15
298.15
298.149
298.148
298.149
298.15
298.15
298.15
298.15
298.15
298.15
298.15
298.15
298.15
298.15
298.15
298.15
298.15
298.15
298.151
298.149
298.141
298.138
298.141
298.145
298.15
298.15
298.15
298.15
298.15
298.15
298.15
298.15
298.15
298.15
298.15
298.15
298.15
298.15
298.15
298.15
298.15
298.15
298.15
298.15
298.15
298.15
298.15
298.15
298.15
298.15
298.15
298.15
298.15
298.15
298.15
298.15
298.15
298.15
298.15
298.15
298.149
298.149
298.15
298.15
298.15
298.15
298.15
298.15
298.15
298.15
298.15
298.15
298.15
298.15
298.15
298.15
298.15
298.15
298.15
298.15
298.15
298.15
298.15
298.15
298.15
298.15
298.15
298.15
298.15
298.15
298.15
298.15
298.15
298.15
298.15
298.15
298.15
298.15
298.15
298.15
298.15
298.15
298.15
298.15
298.15
298.15
298.15
298.15
298.15
298.15
298.15
298.15
298.15
298.15
298.15
298.15
298.15
298.15
298.15
298.15
298.15
298.15
298.15
298.15
298.15
298.15
298.15
298.15
298.15
298.15
298.15
298.15
298.15
298.15
298.15
298.15
298.15
298.15
298.15
298.15
298.15
298.15
298.15
298.15
298.15
298.15
298.15
298.15
298.15
298.15
298.15
298.15
298.15
298.15
298.15
298.15
298.15
298.15
298.15
298.15
298.15
298.15
298.15
298.15
298.15
298.15
298.15
298.15
298.15
298.15
298.15
298.15
298.15
298.15
298.15
298.15
298.15
298.15
298.15
298.15
298.15
298.15
298.15
298.15
298.15
298.15
298.15
298.15
298.15
298.15
298.15
298.15
298.15
298.15
298.15
298.15
298.15
298.15
298.15
298.15
298.15
298.15
298.15
298.15
298.15
298.15
298.15
298.15
298.15
298.15
298.15
298.15
298.15
298.15
298.15
298.15
298.15
298.15
298.15
298.15
298.15
298.15
298.15
298.15
298.15
298.15
298.15
298.15
298.15
298.15
298.15
298.15
298.15
298.15
298.15
298.15
298.15
298.15
298.15
298.15
298.15
298.15
298.15
298.15
298.15
298.15
298.15
298.15
298.15
298.15
298.15
298.15
298.15
298.15
298.15
298.15
298.15
298.15
298.15
298.15
298.15
298.15
298.15
298.15
298.15
298.15
298.15
298.15
298.15
298.15
298.15
298.15
298.15
298.15
298.15
298.15
298.15
298.15
298.15
298.15
298.15
298.15
298.15
298.15
298.15
298.15
298.15
298.15
298.15
298.15
298.15
298.15
298.15
298.15
298.15
298.15
298.15
298.15
298.15
298.15
298.15
298.15
298.15
298.15
298.15
298.15
298.15
298.15
298.15
298.15
298.15
298.15
298.15
298.15
298.15
298.15
298.15
298.15
298.15
298.15
298.15
298.15
298.15
298.15
298.15
298.15
298.15
298.15
298.15
298.15
298.15
298.15
298.15
298.15
298.15
298.15
298.15
298.15
298.15
298.15
298.15
298.15
298.15
298.15
298.15
298.15
298.15
298.15
298.15
298.15
298.15
298.15
298.15
298.15
298.15
298.15
298.15
298.15
298.15
298.15
298.15
298.15
298.15
298.15
298.15
298.15
298.15
298.15
298.15
298.15
298.15
298.15
298.15
298.15
298.15
298.15
298.15
298.15
298.15
298.15
298.15
298.15
298.15
298.15
298.15
298.15
298.15
298.15
298.15
298.15
298.15
298.15
298.15
298.15
298.15
298.15
298.15
298.15
298.15
298.15
298.15
298.15
298.15
298.15
298.15
298.15
298.15
298.15
298.15
298.15
298.15
298.15
298.15
298.15
298.15
298.15
298.15
298.15
298.15
298.15
298.15
298.15
298.15
298.15
298.15
298.15
298.15
298.15
298.15
298.15
298.15
298.15
298.15
298.15
298.15
298.15
298.15
298.15
298.15
298.15
298.15
298.15
298.15
298.15
298.15
298.15
298.15
298.15
298.15
298.15
298.15
298.15
298.15
298.15
298.15
298.15
298.15
298.15
298.15
298.15
298.15
298.15
298.15
298.15
298.15
298.15
298.15
298.15
298.15
298.15
298.15
298.15
298.15
298.15
298.15
298.15
298.15
298.15
298.15
298.15
298.15
298.15
298.15
298.15
298.15
298.15
298.15