/*--------------------------------*- C++ -*----------------------------------*\
| =========                 |                                                 |
| \\      /  F ield         | OpenFOAM: The Open Source CFD Toolbox           |
|  \\    /   O peration     | Version:  5.0                                   |
|   \\  /    A nd           | Web:      www.OpenFOAM.org                      |
|    \\/     M anipulation  |                                                 |
\*---------------------------------------------------------------------------*/
FoamFile
{
    version     2.0;
    format      ascii;
    class       volScalarField;
    location    "50.4676134421789371";
    object      TPDu;
}
// * * * * * * * * * * * * * * * * * * * * * * * * * * * * * * * * * * * * * //

dimensions      [0 1 -2 1 0 0 0];

internalField   nonuniform List<scalar> 
60000
(
-0.000384349
0.000424512
0.00182348
0.00212528
0.00115768
-0.000348037
-0.00101615
-0.000633035
-0.000227474
-0.000500222
-0.000594201
-8.81161e-05
3.76206e-05
-0.000333222
-0.000457712
0.000452959
0.00245784
0.00296992
0.000853018
-0.00196287
-0.00389083
-0.00419731
-0.0012968
0.00266279
0.00451478
0.00317
-0.000416986
-0.00191045
-0.000999963
-0.000122398
-0.000662142
-0.00124664
-0.000815601
9.19168e-05
0.00140136
0.00144759
-0.000455265
-0.00136235
-0.000823235
-0.000321757
-0.000488403
0.000519988
0.00230276
0.00266094
0.00144027
-0.000393991
-0.00122727
-0.000880089
-0.000281019
-0.000608877
-0.000851295
-0.000128654
6.16909e-05
-0.000435274
-0.000652248
0.0005303
0.00332741
0.00429547
0.00137685
-0.00298197
-0.00617984
-0.00689156
-0.00227759
0.00430989
0.00751677
0.00540541
-0.000565891
-0.00300323
-0.0014663
-0.000102032
-0.00104181
-0.00202118
-0.00131406
0.000154763
0.00207064
0.00211678
-0.000641045
-0.00194147
-0.00118149
-0.000454301
-0.000249653
0.000145814
0.000928752
0.0010916
0.000569261
-9.45681e-05
-0.000415004
-0.000336879
-7.53101e-05
-0.000246441
-0.000393485
-7.63514e-05
1.02061e-05
-0.000170642
-0.000248229
0.000196004
0.0012445
0.00178067
0.000696974
-0.00139408
-0.00295384
-0.00326203
-0.00108326
0.00200223
0.00354073
0.00264335
-0.000186713
-0.0014746
-0.000820849
-0.000113024
-0.000463972
-0.000858754
-0.000548303
2.38675e-06
0.000826093
0.000920719
-0.000228939
-0.00073976
-0.000447978
-0.000184993
-6.22223e-05
7.19381e-06
0.000171438
0.000197225
9.03277e-05
-6.78592e-06
-5.1336e-05
-5.00187e-05
-9.8125e-06
-3.85589e-05
-7.63146e-05
-2.60891e-05
-1.88908e-06
-2.44819e-05
-2.86031e-05
1.94084e-05
0.00014879
0.00033763
0.000211203
-0.000423731
-0.000835907
-0.000723395
-0.000182751
0.000298047
0.000502528
0.000403058
-1.07655e-05
-0.000279677
-0.000221887
-6.38886e-05
-0.00013594
-0.000199359
-0.000112906
6.30639e-06
0.000173109
0.000193789
-5.47145e-05
-0.000128149
-6.28463e-05
-2.89404e-05
-6.14214e-06
-5.31221e-07
-1.27929e-06
-1.32507e-05
-1.56691e-05
1.37169e-06
1.20448e-05
2.48591e-06
-5.46414e-07
-3.43423e-06
-1.17737e-05
-5.79309e-06
2.34169e-08
5.8524e-06
2.12542e-05
-1.75779e-05
-7.13056e-05
2.75179e-05
0.000100213
-0.000225307
-0.000427646
-9.57458e-05
5.9237e-05
-0.000177834
-0.000248777
-0.00011632
-1.60309e-06
-2.26035e-07
-3.7416e-05
-2.71748e-05
-4.74872e-05
-3.73908e-05
-2.91379e-06
-4.03754e-07
1.90402e-06
2.54012e-05
-7.68631e-06
-2.96483e-06
2.5826e-06
-8.89768e-07
4.15589e-06
1.44155e-06
-1.60371e-05
-2.87046e-05
-1.8558e-05
1.65349e-06
1.38378e-05
8.53083e-06
4.75882e-07
7.29763e-07
-1.29714e-06
-3.051e-06
1.98135e-07
1.54786e-06
1.67586e-05
-1.13326e-05
-7.29059e-05
-4.59003e-05
5.94121e-05
-0.000148324
-0.00039475
-3.99875e-05
9.88483e-05
-0.000241731
-0.000274553
-9.6477e-05
-2.4163e-06
1.29963e-05
1.73156e-06
-7.29142e-06
-2.71727e-05
-1.81614e-05
9.28498e-06
8.97896e-07
-2.23416e-05
-6.64221e-06
2.62247e-08
9.98123e-06
8.91456e-06
3.30742e-06
4.42353e-06
9.95703e-07
-7.9761e-06
-1.35799e-05
-7.90374e-06
8.79828e-07
7.38844e-06
6.32186e-06
4.79586e-08
-1.1907e-07
1.82032e-07
-3.10322e-06
-8.4241e-08
-3.36098e-06
4.36735e-06
-2.35722e-06
-3.58439e-05
-5.51487e-05
1.91973e-05
-7.87196e-05
-0.000347685
-6.68583e-05
0.000121311
-0.000149956
-0.000172623
-4.47985e-05
-3.8776e-07
-3.10212e-07
1.75536e-06
1.42191e-07
-8.20549e-06
-1.66029e-05
-1.82817e-06
2.42779e-06
-1.14888e-05
-8.72934e-06
-1.05266e-07
3.73738e-06
4.67627e-06
3.01209e-06
2.76081e-06
1.18557e-06
-3.11958e-06
-5.14539e-06
-1.81652e-06
1.24798e-07
1.9253e-06
2.54173e-06
7.75878e-08
-3.01818e-07
-2.64204e-07
-3.16412e-06
-5.77331e-07
-2.14964e-06
-8.51217e-07
-4.27916e-07
-8.67505e-06
-3.5854e-05
-1.28301e-05
-2.46096e-05
-0.000241728
-6.11451e-05
0.000108716
-7.02887e-05
-8.30341e-05
-1.94984e-05
-1.49317e-06
-1.76989e-07
-9.51099e-08
1.38314e-08
2.2186e-07
-4.19429e-06
-5.06568e-06
-2.3144e-07
-2.02319e-06
-3.66822e-06
-5.58369e-07
8.74645e-07
1.13101e-06
1.29594e-06
8.62643e-07
6.71038e-07
-8.11935e-07
-1.65524e-06
-3.39403e-07
3.6732e-10
8.9594e-09
3.80344e-07
1.13127e-07
-8.44961e-08
-1.61796e-07
-2.12268e-06
-9.88915e-07
-5.2503e-07
-1.7883e-06
-5.12311e-07
2.12902e-07
-1.20488e-05
-2.02666e-05
2.09479e-07
-0.000121469
-4.01353e-05
7.62322e-05
-3.525e-05
-3.95674e-05
-7.45311e-06
-4.37277e-07
7.06521e-08
-2.46052e-08
6.60521e-10
1.57882e-07
2.19829e-07
-7.50457e-07
-6.85793e-07
1.00907e-07
-6.68983e-07
-2.74045e-07
1.8212e-07
1.28597e-07
2.92377e-07
3.27242e-07
3.81327e-07
-1.5804e-07
-4.58931e-07
-4.10039e-07
-5.3668e-11
-4.35505e-10
1.01267e-09
5.25685e-08
-6.0417e-08
-2.17403e-08
-1.37742e-06
-6.94917e-07
-1.96375e-07
-1.47725e-06
-3.99762e-07
4.75884e-07
-1.0111e-06
-1.09893e-05
2.05137e-06
-4.06743e-05
-2.30115e-05
4.23871e-05
-1.52841e-05
-1.63662e-05
-2.91375e-06
-2.98592e-07
1.55689e-10
4.32958e-08
-1.27334e-10
-4.00216e-09
8.0802e-09
2.6043e-07
-3.53215e-09
7.02253e-08
2.15481e-08
-8.22503e-08
2.86029e-08
1.93832e-08
5.19253e-08
4.87201e-09
3.0292e-08
-8.74745e-09
-3.27478e-08
-5.92268e-09
-5.4517e-11
-2.43624e-09
-3.19677e-09
1.61751e-09
-1.85108e-09
1.48011e-10
-2.80481e-07
-3.84355e-07
6.38319e-09
-8.12747e-07
-2.34604e-07
4.22789e-09
3.3709e-07
-2.63751e-06
-4.78557e-07
-7.98941e-06
-1.04202e-05
1.7626e-05
-3.5341e-06
-5.15964e-06
-6.96069e-07
-2.86191e-07
3.52555e-09
-2.8412e-10
2.1364e-11
-1.73956e-10
-3.80398e-10
-3.95641e-10
1.08193e-09
3.95374e-11
2.77232e-10
2.80101e-10
2.16016e-10
1.44378e-10
-3.06113e-10
1.21487e-09
5.40056e-09
-4.18193e-11
-1.77989e-09
-1.35951e-10
-1.11312e-12
8.11986e-12
-6.93946e-11
-1.25777e-11
1.14532e-10
4.79883e-10
-2.68197e-07
-4.52974e-08
7.90512e-08
-2.81144e-07
-1.34874e-07
5.89219e-09
1.23863e-08
-4.56892e-07
-4.92269e-07
-7.05449e-07
-3.64912e-06
4.74802e-06
-4.00508e-07
-1.71047e-06
-7.24857e-07
-6.81932e-09
6.51725e-11
3.62022e-12
-8.33049e-14
2.41816e-13
1.42788e-12
2.08174e-12
-5.16421e-12
-9.69102e-15
-2.66717e-12
7.59438e-12
-2.22535e-11
-5.95454e-13
5.18365e-13
2.58886e-12
4.94355e-11
9.59039e-12
-2.71439e-11
-2.16771e-12
-9.94325e-15
3.0991e-15
-1.05663e-13
-1.42699e-12
-1.46712e-11
1.22755e-09
-6.96173e-09
-1.10723e-08
6.71289e-09
-8.39026e-09
-1.40025e-09
-1.92055e-09
1.09738e-11
4.49464e-09
-5.5511e-07
2.07354e-08
-9.61502e-07
1.02485e-06
2.16356e-07
-7.6059e-07
-3.28505e-08
-3.13963e-10
1.20034e-12
6.68259e-14
-3.29203e-16
1.5287e-15
-3.0689e-15
-9.1733e-15
2.23016e-14
4.97486e-17
8.64154e-15
2.05935e-14
-9.35713e-14
-1.60927e-14
-1.41748e-13
-1.45557e-14
2.71861e-13
1.54335e-13
-2.13125e-13
-2.22433e-14
-4.07033e-16
-7.92491e-17
1.3762e-15
4.96701e-15
-1.84381e-14
-8.20022e-13
-1.02996e-10
1.10131e-09
5.14569e-10
-7.98928e-11
-1.23842e-11
-1.62644e-12
-8.13162e-13
5.66634e-10
9.84913e-10
-6.89152e-10
-3.29328e-09
1.52362e-08
4.85906e-09
-2.36983e-09
-8.74537e-11
-1.5818e-13
-3.47244e-16
-4.51123e-16
2.635e-17
-6.74186e-18
2.88895e-18
2.70187e-17
-8.94577e-17
0
-2.88334e-17
1.79611e-17
-1.36858e-16
-1.72383e-16
-7.75726e-16
-1.34877e-16
5.50025e-16
8.53462e-16
-1.25237e-15
-1.40562e-16
-3.49844e-18
0
-2.63875e-18
3.79126e-18
-2.57296e-17
3.69635e-15
-1.27488e-13
2.80734e-12
2.60457e-12
-7.10737e-13
-1.46653e-13
1.22111e-15
1.37134e-14
-9.97012e-13
-4.77457e-12
3.22719e-12
3.5363e-12
2.49603e-11
2.27424e-11
-6.78308e-12
-4.46869e-13
-7.71891e-15
2.21665e-17
4.87625e-18
-3.02612e-18
-7.39479e-18
0
6.20297e-18
1.01368e-17
0
0
-5.20945e-18
0
-6.17167e-19
-5.62733e-18
0
-1.2937e-17
2.75312e-18
1.14633e-17
0
-3.77701e-18
0
-1.6916e-18
-7.33575e-19
0
-1.05101e-17
-1.68581e-16
5.5148e-15
1.53213e-14
-7.66953e-15
-1.95784e-15
0
1.58935e-17
1.43608e-15
1.53515e-14
-1.05241e-14
-4.98726e-16
4.17112e-14
1.10922e-13
-2.45487e-14
-3.18936e-15
-9.4631e-17
5.6912e-19
0
9.13931e-19
-4.2799e-18
2.94713e-18
4.72643e-18
-2.15075e-17
4.75397e-18
7.03143e-18
5.30502e-18
0
1.62072e-19
0
-2.74505e-18
0
0
-3.38328e-18
0
0
0
6.81404e-19
0
0
-4.88651e-18
5.42504e-18
0
8.14443e-17
-8.16781e-17
-1.4648e-17
0
0
0
-3.79752e-17
1.33629e-17
7.03872e-18
7.76932e-17
5.07104e-16
-1.18953e-16
-2.49015e-17
0
0
2.66244e-18
2.16507e-19
-4.48671e-18
4.36783e-18
-3.23785e-18
0
0
-2.0931e-18
1.45363e-17
0
-1.224e-18
1.09441e-18
1.86795e-18
3.35978e-18
-2.46433e-18
0
2.74778e-18
7.28376e-18
-2.81894e-18
-1.68353e-19
-7.78736e-19
0
2.23787e-18
-5.69558e-18
5.75403e-18
1.31242e-18
0
5.05294e-18
0
-1.29633e-18
1.16126e-18
-3.57779e-18
0
6.138e-18
8.04887e-18
4.49224e-18
-3.88536e-18
7.58819e-18
0
0
-3.54096e-18
0
0
6.24287e-18
0
0
0
0
7.85063e-18
0
1.86578e-18
0
-7.77106e-19
0
0
-2.28825e-18
0
0
-4.21568e-18
0
0
0
-1.3452e-18
0
0
1.54354e-18
3.352e-18
-4.12077e-18
0
-1.43448e-18
0
9.6973e-20
1.63824e-19
0
-4.21955e-18
0
2.29581e-18
-4.09059e-18
3.52207e-18
1.60294e-18
0
-8.0328e-20
-6.26151e-18
0
0
0
-2.58777e-17
2.95039e-18
7.69257e-18
0
-3.41545e-18
0
6.14897e-19
0
3.54805e-18
-4.55746e-18
-1.04434e-18
0
9.30187e-18
-3.58994e-19
0
0
0
0
-5.61175e-18
0
2.48444e-18
0
0
0
0
0
-1.72508e-19
0
-2.68285e-18
-2.06703e-18
8.37557e-19
0
-3.76379e-18
0
-2.01397e-19
-2.35123e-19
0
0
0
1.40875e-17
1.43162e-17
0
-5.08865e-18
9.15037e-18
0
0
0
2.95387e-19
0
0
5.66162e-19
3.95042e-18
4.04733e-18
0
-2.74057e-18
0
-4.39471e-19
0
0
6.21455e-19
0
3.60522e-18
-2.59742e-18
0
0
0
0
5.27536e-19
-1.18108e-18
5.98724e-19
-1.26754e-18
-2.93574e-18
3.2216e-18
0
2.97601e-19
0
-2.52648e-19
0
4.0214e-18
0
1.26736e-17
9.32072e-18
0
0
6.66932e-18
0
0
7.95043e-19
3.40243e-18
0
-5.27662e-19
-4.06178e-18
-4.16905e-18
8.69765e-19
0
2.8182e-18
0
0
0
1.51626e-18
5.7663e-18
0
-9.50251e-19
0
1.69194e-18
2.67004e-18
1.42419e-18
-1.59184e-18
1.28184e-18
0
1.64178e-18
1.75913e-18
0
-2.2417e-18
2.96262e-19
1.36274e-18
0
-9.93862e-19
1.99275e-18
8.43755e-19
-7.62792e-18
0
0
3.31435e-18
-6.20989e-18
6.62048e-18
-2.07708e-18
-7.81196e-19
-3.17448e-18
0
0
0
3.35894e-18
1.08499e-19
0
0
-1.88302e-18
-2.66316e-18
0
5.64238e-19
0
3.42404e-19
0
-8.37357e-19
-1.20235e-18
0
0
0
-2.81784e-19
9.31008e-19
0
2.76613e-18
2.79159e-18
1.35597e-18
-6.58773e-19
0
0
4.08477e-19
-9.54486e-19
1.60011e-18
0
-5.60322e-18
-3.11183e-18
0
-5.55064e-18
-1.05833e-17
2.48703e-18
3.98067e-20
3.98163e-18
-1.27283e-18
0
0
-5.32489e-18
6.52037e-21
-3.25716e-18
0
0
9.38063e-19
-1.50346e-18
0
0
0
0
3.92907e-19
-1.13956e-18
0
1.09322e-18
-7.05419e-19
0
1.05965e-18
0
6.68554e-19
1.13551e-18
-1.40638e-18
0
0
0
5.20306e-20
0
0
-3.43695e-18
0
-3.63674e-18
0
2.66781e-18
0
-2.02977e-18
1.13771e-18
2.69356e-19
2.55023e-19
0
1.39469e-18
1.47309e-18
-4.09694e-19
8.53801e-19
1.61883e-18
2.04463e-18
0
-1.13254e-18
0
9.25321e-19
-2.69057e-18
-2.17524e-18
0
0
-1.44357e-18
1.29151e-18
0
-2.13486e-18
0
0
0
2.81979e-19
9.50767e-19
-6.43879e-19
0
4.76942e-19
-9.25467e-19
0
0
0
3.39104e-18
0
0
0
0
-0.000749105
-0.000549467
0.00115168
0.00198793
0.00101804
0.000364317
0.000403514
0.000119466
-0.00107066
-0.0014763
-0.000439876
2.50848e-06
-0.000376005
-0.000642381
-0.000260009
0.000673792
0.00159774
0.00237613
0.00210571
-0.00016199
-0.00313599
-0.00478136
-0.00388051
-0.000319788
0.00332212
0.00379606
0.00175713
0.000353921
0.000364874
0.000311058
-0.000535576
-0.00134587
-0.00171612
-0.000396258
0.00215329
0.00218048
-0.0008569
-0.00198123
-0.000799191
-0.000221085
-0.000893329
-0.000684689
0.00136066
0.00246035
0.00131433
0.000499584
0.000561754
0.000229244
-0.00142605
-0.0020498
-0.000663937
-8.00677e-05
-0.000547097
-0.000938454
-0.000467802
0.00097805
0.00249705
0.00380104
0.00344443
-9.07857e-05
-0.00493367
-0.00778199
-0.00644375
-0.000626583
0.00546722
0.00635791
0.00303365
0.00065295
0.000567536
0.000432046
-0.00095582
-0.0022719
-0.00290658
-0.000631474
0.00337864
0.00314895
-0.00102261
-0.0024949
-0.00101014
-0.000303699
-0.000322294
-0.000262008
0.000476639
0.000900572
0.00048418
0.000167936
0.00019314
0.000111051
-0.000562558
-0.000824601
-0.000253413
-2.92837e-05
-0.000223866
-0.000381866
-0.00021398
0.00036607
0.00103632
0.00166729
0.00159452
-3.69589e-06
-0.00244815
-0.00381088
-0.00303248
-0.000294313
0.00265509
0.00322559
0.00159592
0.000294674
0.000222133
0.000196607
-0.000448595
-0.00110809
-0.00145748
-0.000318747
0.00154995
0.0013343
-0.000362783
-0.00084476
-0.000319815
-0.000127968
-4.26847e-05
-3.63698e-05
5.18195e-05
9.17232e-05
4.32717e-05
1.86278e-05
2.6456e-05
1.63848e-05
-0.000109093
-0.000159428
-4.61114e-05
1.10864e-07
-2.60318e-05
-4.25563e-05
-2.56197e-05
4.34122e-05
0.000140637
0.000250069
0.000292823
4.63773e-06
-0.000730744
-0.00109277
-0.000668599
-4.63437e-05
0.000441131
0.00064596
0.000396183
8.10828e-05
4.44362e-05
3.6107e-05
-0.000106081
-0.000235501
-0.000286946
-6.64894e-05
0.000318847
0.000301156
-9.29814e-05
-0.000138159
-3.31264e-05
-1.57556e-05
8.70609e-06
1.51523e-05
-2.52444e-05
-7.37339e-05
-4.12774e-05
-1.26492e-05
-3.15081e-06
4.09295e-06
-3.21404e-05
-3.22996e-05
2.32462e-06
-1.31968e-06
8.36091e-06
1.9802e-05
1.17432e-05
-1.01743e-05
-1.16969e-05
-2.15834e-05
-1.69907e-05
4.62572e-06
-0.000283006
-0.000431146
-8.70082e-05
1.47171e-05
-0.000145893
-6.98193e-05
3.62483e-05
2.34479e-05
1.10769e-05
2.7482e-06
-1.38734e-05
-1.04547e-05
-1.07798e-05
-1.95153e-06
2.72326e-05
5.6556e-05
-1.81001e-05
-2.78831e-06
4.64683e-06
2.11839e-06
1.08709e-05
1.94848e-05
-2.07068e-05
-7.47521e-05
-3.86394e-05
-1.18077e-05
-5.13091e-06
6.84726e-07
-1.82368e-05
-2.19262e-05
6.78187e-06
1.27258e-06
5.18574e-06
1.63909e-05
1.19518e-05
-9.61236e-06
-1.14338e-05
-1.30286e-05
-4.60807e-05
-1.01508e-06
-0.000140459
-0.000299002
-3.06848e-05
2.33919e-05
-0.0001749
-0.000131106
-2.12615e-05
6.90216e-06
7.13925e-06
8.39884e-07
-4.17761e-06
7.6936e-06
1.12451e-05
4.41977e-06
-1.20998e-05
1.19882e-05
-6.44231e-06
7.97142e-06
4.78396e-06
1.09087e-06
9.05229e-06
1.45466e-05
-9.8464e-06
-4.74391e-05
-2.27822e-05
-5.92364e-06
-2.6961e-06
-1.34319e-07
-8.4052e-06
-2.08969e-05
5.87084e-07
3.78858e-06
-6.28033e-07
3.50349e-06
6.80281e-06
-3.6454e-06
-4.06508e-06
7.5587e-06
-2.11928e-05
-8.41309e-06
-4.93109e-05
-0.000209191
-4.52385e-05
1.93533e-05
-8.56464e-05
-6.42523e-05
-9.67513e-06
1.984e-06
2.02615e-06
5.09716e-07
-2.87067e-06
-2.03585e-06
-2.41676e-06
5.92559e-07
-7.54662e-06
9.44584e-07
-2.94791e-06
-1.74268e-07
2.43667e-06
-1.41778e-06
5.46624e-06
8.81456e-06
-2.53272e-06
-2.2591e-05
-1.07697e-05
-2.26743e-06
-1.12293e-06
-1.68595e-07
-2.08777e-06
-1.18788e-05
-4.6146e-06
3.29972e-06
-3.57181e-06
-4.10822e-06
2.22516e-06
-9.29045e-07
-1.84722e-06
7.03816e-06
-3.54734e-06
-8.96074e-06
-9.1798e-06
-0.000117865
-3.71417e-05
1.40497e-05
-3.42697e-05
-2.49079e-05
-4.2149e-06
5.57727e-07
3.72737e-07
1.66249e-08
-1.76794e-07
-1.31301e-07
-9.95723e-07
-1.36991e-06
-1.30253e-06
-2.25167e-06
-1.13487e-07
-2.97239e-06
9.16418e-07
-1.16918e-06
2.76958e-06
4.7868e-06
-2.87967e-07
-8.99176e-06
-4.57093e-06
-6.57099e-07
-2.39915e-07
-7.15215e-08
-1.21979e-07
-4.23968e-06
-4.72596e-06
1.52691e-06
-2.7926e-06
-6.01756e-06
-3.38816e-07
-6.68308e-08
-8.42752e-07
3.02324e-06
1.37951e-06
-5.66214e-06
-8.09972e-07
-5.59826e-05
-2.13358e-05
9.21364e-06
-1.31946e-05
-9.75117e-06
-2.09074e-06
-4.0121e-07
8.29105e-08
1.50671e-09
1.12105e-09
1.39343e-07
3.20035e-07
-3.45585e-07
1.35867e-07
-1.10344e-06
1.86377e-07
-1.19182e-06
6.11522e-08
-3.72671e-07
9.15119e-07
2.33126e-06
3.63777e-07
-3.03276e-06
-1.57012e-06
-1.31581e-07
-6.08551e-09
7.56906e-09
9.90842e-08
-9.55078e-07
-2.22826e-06
5.00858e-07
-4.9904e-07
-4.34447e-06
-9.09539e-07
9.17088e-08
-1.08419e-07
7.23135e-07
1.6873e-06
-2.56633e-06
5.1555e-07
-2.19847e-05
-9.69034e-06
5.3934e-06
-4.93543e-06
-3.89263e-06
-1.21371e-06
-3.95096e-07
-1.10391e-08
4.69782e-12
-1.78778e-09
-1.06426e-08
2.58866e-08
1.41851e-08
6.79553e-08
-1.76527e-07
-2.23553e-08
-1.93831e-07
-1.88702e-08
6.28301e-09
2.87896e-07
6.29776e-07
1.8114e-07
-6.52604e-07
-4.88222e-07
-2.23966e-08
-8.48002e-11
8.65391e-10
8.00314e-08
-2.13597e-07
-5.86516e-07
-4.44443e-08
1.26456e-07
-1.05062e-06
-4.55303e-07
1.50771e-08
5.7356e-08
-9.44045e-09
3.51554e-07
-6.19042e-07
2.71791e-07
-6.55255e-06
-3.66223e-06
2.62041e-06
-1.52757e-06
-1.4904e-06
-7.33217e-07
-1.92465e-08
-8.87629e-10
-1.27539e-11
1.88191e-11
-6.8131e-10
-1.68698e-09
2.80272e-09
1.54558e-09
5.6914e-09
-1.58908e-07
-3.29574e-10
7.42185e-09
2.48741e-09
-1.16091e-09
7.65683e-07
3.31569e-07
-9.92343e-08
-2.93977e-08
-1.72797e-09
8.4892e-11
5.85917e-10
6.57709e-10
-7.2671e-10
-1.65567e-07
-1.95026e-08
1.2377e-08
-3.22333e-07
-3.46986e-07
-2.37627e-09
5.09492e-09
-1.75131e-09
3.2136e-07
-4.08373e-09
3.50651e-09
-1.44283e-06
-8.31872e-07
8.57893e-07
-5.74945e-07
-7.94059e-07
-3.37774e-08
-6.08652e-10
-7.66946e-12
-3.9044e-14
-3.82378e-14
3.11058e-12
1.56182e-11
-3.42523e-11
6.80921e-12
6.85503e-10
7.87694e-12
8.04532e-11
5.6149e-10
2.4394e-09
3.11661e-09
1.74713e-08
7.76194e-09
-5.11185e-09
-4.26559e-10
-1.08584e-11
1.64049e-12
-1.74177e-11
-2.26623e-11
1.06523e-10
-7.40254e-11
3.02618e-09
3.94289e-09
-5.78379e-09
-3.06949e-09
-2.37888e-10
2.2327e-12
7.4744e-11
-1.34977e-09
5.31747e-10
-2.31465e-09
-4.74904e-07
-6.82243e-08
5.41717e-08
-3.40613e-07
-4.20897e-08
-1.08758e-09
-1.88642e-11
-2.42606e-13
-5.82279e-15
-1.11889e-15
-8.25456e-15
-1.23017e-13
3.53976e-13
-2.67928e-13
-2.26648e-12
8.69167e-15
-6.78837e-13
3.49558e-12
-9.5494e-11
1.43586e-11
1.24425e-10
6.89144e-11
-5.11679e-11
-4.65313e-12
-5.34876e-14
-1.24494e-14
1.37657e-13
-6.27562e-14
-2.30364e-13
-3.94598e-14
3.21418e-12
3.29642e-11
-2.33109e-11
-2.0348e-11
-2.1151e-12
2.36755e-14
-3.7914e-13
2.89752e-12
3.66363e-11
-6.48147e-10
-2.19912e-10
4.5494e-09
1.00414e-08
-3.33839e-09
-4.76432e-10
-1.36691e-11
-1.84776e-13
-1.17292e-15
-6.48345e-17
6.47671e-18
-6.14202e-18
8.17035e-16
-2.91312e-15
2.94719e-15
5.72507e-15
2.25495e-15
-1.30787e-14
4.64882e-15
3.10827e-13
3.31455e-14
5.8061e-13
4.05509e-13
-3.3274e-13
-2.79085e-14
-2.8644e-16
6.58881e-17
-4.75383e-16
4.66108e-16
1.26483e-15
7.74229e-16
-1.0309e-14
2.38951e-13
-3.23531e-14
-1.86521e-13
-1.97706e-14
3.72944e-17
-1.14478e-15
1.4186e-14
-2.75375e-13
3.74057e-12
6.24491e-14
7.93587e-12
6.65535e-11
-1.80679e-11
-4.03552e-12
-1.31823e-13
-1.43688e-15
-6.69788e-18
-1.38467e-18
0
0
0
-1.29074e-17
-2.59115e-17
-1.29593e-17
9.62093e-18
-1.03942e-16
6.54077e-17
2.95053e-15
5.81396e-18
1.50376e-15
2.19666e-15
-1.18626e-15
-9.77469e-17
0
0
6.47907e-19
-4.45761e-19
-6.58109e-19
-4.32463e-18
-7.34527e-17
1.04247e-15
5.45021e-16
-1.69064e-15
-2.07655e-16
0
8.07201e-18
-2.13535e-17
6.37503e-16
-1.12427e-14
3.7464e-16
2.20689e-15
4.1963e-13
-9.17301e-14
-3.12858e-14
-1.51748e-15
-2.46556e-17
0
8.06661e-20
0
-7.71905e-18
3.09467e-18
1.21934e-17
-1.1246e-17
0
-2.16339e-17
-5.96963e-18
5.51738e-19
2.12499e-17
0
-6.47801e-18
7.01215e-18
-9.86406e-18
0
0
-6.84114e-19
-4.28059e-20
4.0475e-19
0
0
0
8.67444e-18
-6.94894e-18
-1.91148e-17
-7.75826e-18
0
0
-2.58295e-18
7.79308e-19
1.71511e-17
-7.65221e-19
-1.17528e-16
2.36463e-15
-3.90687e-16
-2.76772e-16
0
0
-1.13013e-18
1.67835e-18
-1.67175e-18
0
0
0
0
2.31376e-18
0
-7.19009e-18
4.20876e-18
-2.73031e-18
0
0
0
0
-7.76426e-18
-2.96401e-18
0
8.72065e-19
-8.52695e-19
0
-3.24953e-18
2.04595e-17
-1.95736e-17
0
-9.06848e-18
0
0
0
0
0
1.21628e-18
0
7.09968e-18
7.17196e-18
0
8.56141e-18
0
3.09243e-18
0
0
0
0
0
0
0
3.11787e-18
0
-9.70853e-18
-7.0717e-18
0
-2.81963e-18
-3.1571e-18
0
-6.75878e-19
0
0
3.24041e-18
0
-4.41424e-19
6.75726e-19
0
0
0
0
0
0
-3.39331e-18
-2.23456e-18
3.30348e-18
-1.59263e-18
0
0
0
-3.82849e-18
-9.24417e-19
0
5.0214e-18
-2.18291e-18
0
0
-5.00646e-18
0
0
0
0
5.7625e-18
0
0
0
0
0
-2.0623e-18
0
-2.37033e-18
0
3.88931e-18
0
0
0
0
-2.63776e-18
0
0
0
5.93073e-18
8.79835e-18
0
0
-2.87595e-18
2.05909e-18
3.9524e-19
0
0
0
3.97838e-19
-2.63701e-18
4.26973e-18
3.29303e-18
0
0
-5.61073e-18
0
0
7.0674e-18
-2.76364e-17
0
0
0
0
0
0
0
2.0069e-18
3.17986e-18
0
2.85662e-18
3.14375e-18
0
0
9.75351e-19
-2.80196e-18
0
5.49443e-18
0
3.57922e-18
6.6583e-18
9.15825e-18
-1.4463e-19
2.93564e-18
-2.8657e-18
9.14987e-19
1.26793e-20
1.21224e-18
-7.12405e-19
1.09578e-18
-4.14783e-18
3.44847e-18
-8.08687e-19
0
0
0
0
0
0
-1.41229e-17
0
3.60496e-18
-2.25983e-17
9.15987e-18
2.00134e-18
0
3.95604e-19
-2.74826e-18
0
-4.3874e-19
0
-6.76155e-18
0
-1.36506e-18
-2.06305e-18
-2.79061e-18
-4.17433e-18
3.71881e-18
-3.4847e-19
-3.59665e-18
8.0109e-18
0
2.08661e-19
0
-2.56981e-18
-2.05814e-18
-7.94276e-19
1.16355e-18
0
0
-4.19949e-18
-4.0506e-18
0
1.18099e-18
0
0
-2.98457e-18
3.00807e-18
-2.58608e-18
1.02368e-17
-1.11639e-17
3.28326e-18
7.92731e-18
-1.85777e-17
0
3.62019e-18
9.77141e-20
-3.01701e-18
2.43083e-18
0
3.4242e-18
2.78348e-18
1.17135e-19
-2.32606e-18
0
0
-2.14354e-18
0
0
1.57186e-18
8.40608e-19
-3.561e-19
6.21943e-19
0
-5.15672e-19
0
0
-4.40283e-19
0
0
2.38497e-18
2.34021e-18
-2.17213e-18
9.64122e-19
-1.6975e-18
4.5643e-19
1.1452e-18
-2.13715e-18
0
0
0
0
-2.64474e-18
0
-5.42508e-18
3.02443e-18
0
1.5434e-18
-1.31766e-18
0
2.55162e-18
0
0
0
-2.18292e-18
2.74107e-18
-1.92167e-18
2.02801e-18
2.6004e-20
4.29613e-19
0
1.07251e-18
0
0
1.23947e-18
0
-2.16417e-20
-9.94001e-20
-5.24882e-19
0
0
8.45766e-19
-8.82924e-19
-7.18337e-19
3.82139e-19
8.56167e-20
0
8.2797e-19
2.22707e-18
3.07378e-18
0
-2.30858e-18
3.42032e-19
-2.87045e-18
4.01534e-18
0
1.94606e-18
-3.11565e-19
0
-6.03558e-19
0
-9.50065e-19
1.27976e-19
-5.30167e-19
-9.22153e-19
-1.19812e-18
8.04284e-19
0
0
1.64597e-18
0
0
5.26488e-20
0
-3.17653e-18
-2.384e-18
9.93085e-19
3.87321e-19
1.54268e-20
0
1.12739e-18
3.0404e-19
0
0
0
0
-6.41118e-19
0
0
0
0
-1.94325e-18
0
0
2.10809e-18
-0.00290445
-0.000449098
0.00330467
0.0031467
0.000488848
-0.00102773
-0.00083962
-0.000352235
9.87088e-05
0.000206838
-0.000145329
-0.000567524
-0.000842273
-0.000836812
-0.000441487
0.00025773
0.000870675
0.00199445
0.00295645
0.00142726
-0.00247633
-0.00507081
-0.00445563
-0.00159121
0.00162888
0.00321799
0.00284849
0.00185268
0.00115795
0.000425396
-0.000708753
-0.00174808
-0.00183854
-0.000580213
0.0010959
0.00111191
-0.00020677
-0.000426659
-7.46176e-05
-0.00144977
-0.00356732
-0.000560781
0.00420704
0.00421177
0.000681138
-0.00147615
-0.00118734
-0.00049486
0.000132421
0.000287716
-0.000255015
-0.000887674
-0.00142862
-0.0013667
-0.000651995
0.000398185
0.00142864
0.00331072
0.00497586
0.00252689
-0.00369917
-0.00783462
-0.00686508
-0.0024362
0.00236239
0.00493237
0.00450503
0.00296408
0.00183288
0.000639664
-0.00122759
-0.00292204
-0.00295791
-0.000820139
0.00174432
0.00162702
-0.000263971
-0.000571337
-0.000127684
-0.00184063
-0.00133009
-0.000247075
0.00164455
0.00169225
0.000285797
-0.000610774
-0.000497738
-0.000229516
3.95726e-05
0.00013657
-0.000108982
-0.000400547
-0.000641317
-0.000641154
-0.000353759
0.000137476
0.000647401
0.00161076
0.00255115
0.0013619
-0.00195687
-0.00403444
-0.00319241
-0.00103226
0.00103452
0.00239422
0.00229951
0.00151483
0.000902372
0.000318197
-0.000577939
-0.00145257
-0.00151656
-0.000484697
0.00074639
0.000684462
-9.06655e-05
-0.000139326
4.35983e-05
-0.000649987
-0.00024601
-5.32412e-05
0.000224254
0.000224911
3.91187e-05
-8.725e-05
-7.69522e-05
-3.99367e-05
3.79274e-06
2.47043e-05
-1.98728e-05
-7.44372e-05
-0.00011117
-0.000104095
-6.17147e-05
1.50572e-05
0.000105265
0.000283521
0.000503523
0.000357659
-0.00057398
-0.00125592
-0.000822337
-0.000207953
0.000187285
0.000537741
0.000598198
0.000406474
0.000220793
6.97968e-05
-0.000115242
-0.000312141
-0.000355393
-0.000132329
0.000156416
0.000141498
-2.797e-05
-1.16559e-05
3.51221e-05
-0.000117618
-6.15142e-05
1.50842e-05
-0.000116635
-0.00014204
-2.20968e-05
3.20998e-05
1.50914e-05
3.55153e-06
1.41812e-08
3.4646e-07
1.63145e-07
6.44682e-06
2.21698e-05
2.60093e-05
1.42954e-05
-1.12501e-06
-6.90804e-06
-1.22368e-05
-2.20913e-05
4.97284e-05
-0.00018142
-0.000476042
-0.000211159
-5.06436e-06
-1.5065e-05
1.19074e-05
7.5145e-05
6.01168e-05
2.01735e-05
8.59225e-07
2.95587e-06
-1.00549e-05
-4.18108e-05
-2.21029e-05
2.26521e-05
1.89626e-05
-2.9292e-06
-3.97051e-08
5.02125e-06
-2.87524e-05
-4.03889e-05
2.28811e-05
-0.000131865
-0.000183235
-3.11208e-05
4.48462e-05
2.46904e-05
6.52937e-06
8.03953e-07
5.31717e-07
3.15827e-06
1.08648e-05
3.21173e-05
4.00202e-05
2.21416e-05
2.48318e-07
-9.47984e-06
-1.0734e-05
-3.17168e-05
-2.77789e-05
-5.10142e-05
-0.000274915
-0.000110279
2.77908e-05
-3.07068e-05
-7.73423e-05
-2.98292e-05
-1.1319e-05
-1.24146e-05
-5.02671e-06
1.31993e-05
2.16308e-05
3.84723e-06
-3.86724e-06
4.98156e-06
4.27364e-06
8.85869e-07
1.20017e-06
-6.37045e-06
-7.17327e-06
-2.58953e-05
1.4404e-05
-8.42344e-05
-0.000137623
-2.72394e-05
3.24868e-05
1.81689e-05
2.97778e-06
8.75356e-07
2.54611e-06
2.68559e-06
3.42796e-06
1.61639e-05
2.66234e-05
1.49802e-05
1.93042e-06
-3.04005e-06
-3.3282e-06
4.84228e-06
-1.8865e-05
3.8818e-06
-0.000115316
-8.78236e-05
1.00775e-05
-1.75771e-05
-5.46562e-05
-3.14762e-05
-1.44711e-05
-7.52816e-06
-1.6136e-06
3.17166e-06
5.26963e-06
1.06707e-06
-1.18625e-06
1.83452e-06
3.81378e-06
-7.31289e-08
3.83632e-07
-6.58449e-06
-1.37101e-06
-1.32341e-05
6.7859e-06
-3.75493e-05
-7.56068e-05
-2.08871e-05
1.81326e-05
1.15804e-05
1.10874e-06
6.37955e-07
2.22261e-06
1.47495e-06
8.18614e-08
3.78123e-06
1.0813e-05
6.94659e-06
1.70961e-06
-2.92381e-07
-2.68547e-06
2.56028e-06
-1.97761e-06
4.36539e-06
-2.80784e-05
-4.72157e-05
-6.67696e-07
-5.9458e-06
-2.44111e-05
-1.77326e-05
-8.32317e-06
-3.57671e-06
-2.83837e-07
3.89727e-07
2.18524e-08
-3.54043e-07
-1.49146e-07
1.43224e-07
1.75585e-06
1.10666e-07
2.70984e-08
-2.61648e-06
-3.83479e-07
-6.76233e-06
3.91045e-06
-1.36728e-05
-3.69654e-05
-1.22418e-05
7.3244e-06
5.83553e-06
1.11468e-06
-1.02003e-08
1.02161e-06
8.53506e-07
-3.02985e-07
2.49593e-07
1.83784e-06
1.61403e-06
8.48187e-07
1.74657e-07
-7.59238e-07
6.61486e-07
-1.61579e-07
8.65133e-07
-6.3586e-06
-1.9013e-05
-1.31449e-06
-1.69313e-06
-9.1984e-06
-8.04268e-06
-3.86779e-06
-1.29292e-06
-9.10587e-08
1.60424e-08
-1.14156e-08
7.86445e-09
-8.81385e-09
-6.55943e-08
1.91629e-07
2.17604e-07
-2.56076e-08
-5.99225e-07
-1.57054e-07
-2.77838e-06
2.59021e-06
-4.45168e-06
-1.36847e-05
-5.03045e-06
2.07135e-06
2.16841e-06
7.61885e-07
-2.14068e-10
1.56111e-07
3.44514e-07
4.62671e-09
-5.91624e-08
1.05607e-07
4.70236e-08
1.49967e-07
1.03584e-07
-2.44465e-07
6.13755e-07
-1.83716e-07
1.20691e-07
-1.88677e-06
-6.76251e-06
-5.50804e-07
-4.35671e-07
-3.38978e-06
-3.07801e-06
-1.59225e-06
-5.91525e-07
-5.65969e-08
1.38506e-08
9.69864e-09
5.10095e-09
1.61126e-09
-1.24265e-09
-8.05266e-09
1.42947e-07
-5.26121e-09
-4.17188e-08
9.86742e-08
-8.8091e-07
7.60358e-07
-1.29033e-06
-3.51821e-06
-1.52999e-06
4.12144e-07
4.76054e-07
2.75652e-07
3.7064e-08
3.33003e-08
1.77311e-07
2.64199e-07
-1.00246e-08
-1.66688e-08
-8.53994e-11
9.52e-10
1.9728e-09
-1.49757e-09
7.14446e-09
3.14336e-08
-2.78572e-08
-7.28522e-07
-1.93321e-06
7.02938e-08
-1.76012e-07
-1.40676e-06
-9.84295e-07
-4.01858e-07
-2.96765e-07
-3.88165e-09
1.28776e-10
-5.29975e-11
-5.22993e-11
-2.99061e-10
-4.34441e-10
2.48754e-09
9.30153e-09
-6.1631e-09
-1.79377e-08
6.59932e-09
-9.97592e-07
6.17407e-08
-3.11597e-07
-9.75315e-07
-2.96594e-07
1.78964e-08
2.14008e-07
1.29324e-08
2.2265e-09
7.18463e-10
2.35868e-09
6.22932e-09
1.06355e-09
-2.25862e-09
4.17773e-10
-2.42692e-10
-6.81538e-11
-9.81548e-11
-1.8367e-09
7.14398e-09
-8.9144e-09
-2.4433e-07
-1.02695e-06
-1.17056e-08
-5.55546e-08
-3.38426e-07
-5.91365e-07
-3.2108e-08
-1.35998e-09
-1.09253e-11
-6.2631e-14
4.16746e-13
4.5938e-13
9.2938e-12
-6.2444e-12
-6.27637e-10
3.39984e-11
7.74411e-11
-6.09198e-09
2.1844e-10
-2.15997e-08
5.03081e-08
-1.78092e-08
-5.77528e-08
-1.85802e-08
1.54538e-09
2.71763e-09
2.66699e-10
3.37681e-11
2.27206e-12
3.09339e-12
2.51787e-11
2.1882e-11
-3.50219e-11
2.2125e-12
-2.14527e-13
7.41339e-16
-4.35981e-13
2.23837e-11
-5.78996e-11
-2.02995e-10
-3.36798e-09
-3.35117e-08
5.3089e-09
-5.94703e-09
-2.08753e-08
-5.62221e-09
-2.55352e-10
-5.40216e-12
-6.30701e-14
-2.58216e-15
-2.36869e-15
-2.72795e-15
-2.02848e-13
2.99021e-13
3.56213e-12
-1.01981e-12
8.77325e-12
-1.23428e-10
-4.49813e-10
1.79665e-09
9.86558e-09
-6.64229e-10
-8.12388e-10
-1.21127e-10
2.30997e-12
3.38846e-12
8.37474e-14
-9.27471e-15
-2.5651e-15
-7.86662e-16
3.01081e-14
1.85383e-13
-3.44373e-13
-1.05338e-14
3.51724e-15
-8.61003e-16
-6.13052e-17
-1.02063e-13
-6.15281e-14
5.82089e-12
1.15653e-11
1.26814e-10
2.95547e-09
-2.72294e-10
-2.246e-10
-3.23641e-11
-1.24533e-12
-1.8497e-14
-2.67287e-16
5.69151e-17
1.00116e-18
0
3.50183e-15
-6.06875e-15
-1.7424e-14
-2.30009e-14
1.83915e-13
-4.831e-13
-1.97354e-11
7.84057e-12
7.66453e-11
-2.68428e-12
-7.41487e-12
-5.75797e-13
-1.53238e-15
-1.48335e-15
-1.22248e-16
-2.84246e-18
9.35142e-19
0
-8.18284e-17
1.65712e-15
-2.97676e-15
-4.2809e-16
2.49164e-17
-6.1905e-18
7.3102e-17
-2.01332e-16
3.43586e-15
-6.15916e-14
-9.36445e-15
-7.55348e-13
1.70285e-11
-5.33612e-13
-1.98984e-12
-2.13064e-13
-6.80351e-15
-9.08109e-17
-1.92752e-18
3.53009e-18
1.86931e-18
-6.92351e-18
-5.87137e-17
8.42447e-17
7.43252e-17
-2.49758e-16
2.83221e-15
2.52896e-15
-2.96829e-13
2.34702e-14
4.21257e-13
1.6195e-14
-3.71019e-14
-1.96919e-15
-9.37885e-18
4.63947e-18
1.66456e-18
3.08113e-19
0
-5.36055e-18
0
8.09657e-18
-1.50719e-17
-1.28889e-17
0
1.78572e-18
5.13322e-18
2.12342e-18
-1.78597e-17
3.57803e-16
3.72871e-17
-5.96219e-15
9.87757e-14
1.63773e-16
-1.85768e-14
-1.81159e-15
-5.35283e-17
3.70039e-18
0
1.52711e-18
0
2.98456e-18
1.33817e-17
1.27145e-17
-3.45208e-18
-2.93642e-17
4.34708e-17
1.64774e-17
-2.65218e-15
2.96335e-17
2.02168e-15
2.43707e-16