/*--------------------------------*- C++ -*----------------------------------*\
| =========                 |                                                 |
| \\      /  F ield         | OpenFOAM: The Open Source CFD Toolbox           |
|  \\    /   O peration     | Version:  5.0                                   |
|   \\  /    A nd           | Web:      www.OpenFOAM.org                      |
|    \\/     M anipulation  |                                                 |
\*---------------------------------------------------------------------------*/
FoamFile
{
    version     2.0;
    format      ascii;
    class       volScalarField;
    location    "50.4676134421789371";
    object      TPDv;
}
// * * * * * * * * * * * * * * * * * * * * * * * * * * * * * * * * * * * * * //

dimensions      [0 1 -2 1 0 0 0];

internalField   nonuniform List<scalar> 
60000
(
0.000255887
0.000150742
-4.25068e-05
-0.000115429
-1.04328e-05
-1.17392e-05
0.000251467
0.000118523
-0.000453047
0.000218377
4.00236e-06
-6.62818e-06
-4.01679e-05
6.35079e-05
7.31084e-05
-0.000276338
-0.000447161
-0.000396684
5.33533e-05
0.000349051
0.000219347
0.000142251
-0.000390468
-0.000728081
-0.00120505
-0.00137519
-0.001135
-0.000619842
-5.01464e-05
0.000399479
0.000511645
0.000522857
0.000462917
0.000501599
0.000586449
0.000349445
0.000765315
0.000334442
0.000358718
-7.18578e-05
0.000997304
1.38635e-05
-0.000985957
-0.00118048
-0.000533706
-0.000484631
0.00101682
0.00032118
-0.000260946
0.00121534
0.000149854
0.000111848
-0.0003283
-0.00012974
5.88813e-05
-0.000401628
-0.000745533
-0.00147638
1.53471e-05
0.00119585
0.000191136
-0.000164772
-0.00105904
-0.00158073
-0.003905
-0.00447832
-0.00348802
-0.00156156
-0.000488158
-0.000601215
-0.000499454
0.00100666
0.00232036
0.0027491
0.00111883
-0.000767748
-0.000127566
0.000439373
0.00107757
0.000636886
0.000706151
-0.000147646
-0.000830122
-0.000839639
-0.000518105
-0.000290224
0.000294655
0.000136192
0.000234956
0.000573792
0.00036747
0.000119631
-0.000269477
-0.000183093
-6.66004e-05
-9.89168e-05
-1.2082e-05
-0.00040048
0.000195107
0.00106825
0.000128678
-0.000574633
-0.000879633
-0.000356245
-0.0018232
-0.00193321
-0.00141167
-0.000213136
0.000226248
-0.000658802
-0.00103031
6.77702e-05
0.00106496
0.0011664
0.00064918
-0.000758106
-0.00104401
-0.000162447
0.000465541
0.000861136
0.000150555
-3.21996e-05
-0.000149662
-0.000110584
-7.0831e-05
-2.72145e-05
4.18925e-06
1.21948e-05
2.84337e-05
3.74083e-05
0.000112633
1.78418e-05
-6.6715e-05
-1.81856e-05
-2.91022e-06
-1.91643e-05
3.54843e-07
1.16299e-05
0.000134385
0.000565013
0.000262895
-0.000162837
-0.000308823
-5.33484e-05
-0.00027975
-0.000267567
-0.00022837
2.2429e-05
0.000368886
0.000267934
-3.41865e-06
5.63597e-05
0.00011723
6.86313e-05
0.000167795
-4.37145e-05
-0.000149093
-1.73264e-05
7.88841e-05
0.000183642
8.09839e-06
-3.99551e-06
1.07616e-06
3.57328e-06
3.70968e-07
4.16088e-06
-2.07592e-06
-5.07771e-07
1.32943e-07
3.90613e-06
2.2579e-05
1.07813e-06
8.3296e-07
3.5214e-06
-1.97705e-05
-3.8251e-06
1.05284e-05
-7.31036e-06
2.18089e-05
0.000332898
0.000239929
-1.05047e-05
0.000135656
6.17974e-05
0.000146299
8.20821e-05
4.29517e-05
-3.75686e-08
9.14621e-05
0.000204397
0.000125745
4.39966e-05
3.05018e-06
-1.69332e-06
4.40429e-07
-1.08273e-05
-4.60606e-06
1.70601e-06
-4.35269e-06
5.11938e-06
-2.54618e-06
4.92765e-06
7.30015e-06
4.53958e-06
-9.94754e-06
-2.85083e-06
-6.89431e-06
-2.0473e-06
3.47085e-06
-2.73259e-06
3.49895e-06
1.73395e-06
1.19746e-05
1.98916e-05
-3.99373e-05
-2.70061e-05
1.98402e-05
3.07228e-05
-2.87359e-05
0.000163081
0.000259953
5.04214e-06
-3.58042e-06
0.000353137
0.000172104
7.95241e-05
2.66491e-05
7.22612e-06
-5.16325e-06
7.54707e-05
0.000108246
3.85014e-05
-1.47898e-05
-1.65799e-06
8.3316e-06
6.89975e-06
3.66347e-08
-1.31293e-05
-2.26427e-05
-1.63479e-05
-3.53616e-06
2.55491e-06
8.3261e-06
1.07955e-06
-5.02955e-06
-4.7275e-06
-6.81386e-06
-2.22612e-06
2.31821e-06
-1.48729e-06
-6.02397e-07
2.87577e-06
-1.51544e-06
2.01247e-05
-1.29396e-05
-1.65812e-05
8.737e-06
4.24131e-05
-2.02444e-05
2.95358e-05
0.00023552
2.76324e-05
-0.000130005
0.000349875
0.000126543
3.87996e-05
1.891e-06
-1.1609e-07
-7.79214e-06
-2.60854e-06
3.30181e-05
3.97249e-05
3.66117e-06
-6.54131e-06
5.6333e-06
1.09353e-05
2.07448e-06
-6.31652e-06
-1.56996e-05
-1.41521e-05
-3.35488e-06
8.73443e-07
6.13439e-06
1.94307e-06
-7.75646e-07
-8.80583e-07
-2.10651e-06
-2.07048e-06
-5.40611e-07
1.10201e-07
8.88607e-07
3.9906e-06
-6.19401e-07
1.03414e-05
3.98333e-06
-5.54618e-06
-9.77797e-07
3.30659e-05
2.05309e-05
-3.3407e-05
0.000166357
4.09247e-05
-6.43138e-05
0.000112847
1.73942e-05
1.36219e-05
2.09221e-06
1.9357e-07
7.0592e-07
-1.87002e-06
-6.61583e-07
7.96344e-06
8.91124e-06
5.31941e-07
6.01982e-08
3.51792e-06
1.65879e-06
-8.7276e-07
-4.33232e-06
-5.76582e-06
-1.19896e-06
-3.3015e-07
1.59584e-06
1.22717e-06
6.25008e-09
-3.23277e-09
-5.27795e-09
-3.85459e-07
-5.605e-07
2.14153e-08
4.00513e-07
3.44396e-06
1.64048e-07
4.89342e-06
5.01641e-06
-2.32679e-06
7.9671e-08
1.65166e-05
4.21214e-05
-2.98535e-05
8.94452e-05
3.46263e-05
-6.15224e-05
2.32628e-05
-2.01071e-05
3.84025e-06
-1.55518e-07
-2.82408e-07
1.45651e-07
8.46694e-08
-2.41322e-07
-2.73971e-07
9.18369e-07
8.62521e-07
4.92992e-09
4.33311e-07
3.18334e-07
-1.11493e-07
-6.83637e-07
-1.36735e-06
-4.37533e-07
-3.2955e-07
2.89688e-07
3.56702e-07
1.20151e-07
-4.36392e-09
6.40015e-11
-5.81549e-10
-2.53109e-07
-8.07004e-08
1.88771e-08
1.56537e-06
2.74212e-08
1.17615e-06
2.04654e-06
-1.07473e-06
-1.2106e-07
2.3372e-06
2.51002e-05
-7.08414e-06
3.13653e-05
2.21206e-05
-4.14082e-05
-6.43915e-07
-4.04188e-06
9.75341e-07
-2.75108e-07
-4.65558e-10
-7.08429e-08
-2.54265e-12
2.33976e-09
-7.82005e-09
-2.58707e-07
1.9434e-09
-6.841e-08
-1.54945e-08
3.66633e-08
-7.26868e-08
-2.11078e-07
-2.67146e-07
-5.50352e-09
-2.52061e-08
1.27843e-08
2.10347e-08
1.85652e-09
-2.29347e-10
9.84443e-10
-1.35614e-09
-9.10003e-09
-8.54432e-09
-3.28339e-10
1.34567e-07
3.10451e-07
4.70019e-08
6.15024e-07
-2.54824e-07
-9.97579e-08
-1.17519e-06
5.50173e-06
8.95904e-07
6.12639e-06
9.86651e-06
-1.7552e-05
-4.16785e-06
8.86231e-08
-4.23805e-08
-1.72854e-07
-4.85334e-10
1.24476e-11
1.43763e-10
3.08923e-11
3.92546e-10
3.02906e-10
-4.13094e-10
-1.01725e-10
-2.25499e-10
-1.23575e-10
-2.43104e-09
-3.9213e-09
1.99095e-09
-8.42639e-10
-3.64445e-09
-1.26968e-09
5.89264e-10
3.00069e-11
-1.34129e-12
1.93168e-12
-6.30226e-11
2.60266e-10
-2.19567e-09
1.44647e-09
-1.04563e-07
2.70862e-08
-1.55044e-07
1.88742e-07
-1.66036e-08
6.34357e-10
-5.66356e-08
7.18106e-07
6.48262e-07
-1.67061e-07
2.62634e-06
-4.16628e-06
-2.37962e-06
1.49611e-06
-7.3981e-08
5.59768e-09
8.55757e-11
8.27242e-13
-1.0699e-12
-3.25012e-13
-1.93116e-12
-1.70188e-12
1.34221e-12
1.46492e-13
2.13614e-12
-2.54146e-12
-8.89864e-11
-3.68321e-11
-6.50862e-12
-1.32289e-12
-2.60346e-11
-5.78887e-11
1.12724e-12
1.50053e-12
3.27404e-14
1.27282e-15
-3.73701e-14
1.98713e-12
5.93896e-11
4.91978e-12
-4.07223e-09
4.97782e-09
-1.01381e-08
1.09342e-09
7.94824e-10
1.40316e-09
2.05758e-10
-2.60193e-09
5.4982e-07
-4.2618e-07
2.17445e-07
-7.26637e-07
-5.30002e-07
4.47115e-07
6.31664e-09
5.70435e-10
7.68846e-12
1.85978e-13
1.54491e-14
9.57933e-16
7.66603e-15
1.06014e-14
-1.24519e-14
1.69957e-16
-6.51809e-15
-5.01025e-15
-1.56704e-13
-3.22097e-13
1.03368e-12
6.2158e-15
-9.29472e-14
-7.92626e-13
-3.91628e-14
1.43318e-14
7.44986e-16
1.80975e-17
-8.48471e-16
-7.14706e-15
8.33736e-14
2.46176e-14
-9.68793e-11
7.72712e-12
-5.88347e-10
-4.78857e-11
9.83281e-12
4.5261e-12
1.0628e-10
3.88204e-10
-7.21957e-10
3.77723e-09
-9.25706e-10
-8.69211e-09
-1.20236e-08
-1.83824e-09
2.80934e-11
1.66679e-13
-2.07991e-14
-2.2661e-15
-1.16182e-16
2.07682e-18
-1.93802e-17
-3.45683e-17
7.24607e-17
0
1.81035e-17
-3.40338e-18
-1.44741e-16
-1.78628e-15
5.73321e-15
3.19378e-17
-3.24464e-16
-4.31446e-15
-2.90587e-16
2.2716e-17
7.91307e-19
0
2.86102e-18
-3.31193e-17
-1.00282e-16
7.12886e-16
-7.17092e-14
1.28945e-12
-2.04675e-12
-2.56836e-13
2.5712e-14
1.08806e-14
2.28628e-14
-1.07843e-12
2.12641e-12
-1.22301e-11
1.20265e-12
-1.26135e-11
-3.49422e-11
-2.20336e-12
1.74665e-13
3.41227e-15
9.55103e-17
1.25567e-17
7.78684e-18
5.77407e-18
0
-6.69498e-18
-6.71141e-18
0
0
1.75048e-18
0
-7.32058e-18
1.77653e-17
0
1.2142e-17
-6.57976e-18
6.86787e-18
0
7.91145e-18
0
2.19683e-18
1.64159e-18
0
2.03841e-18
4.70333e-17
-2.15644e-16
-3.52568e-15
-3.3909e-15
-4.67167e-16
0
6.21905e-16
7.71988e-16
-4.3953e-15
3.49073e-14
-1.96116e-16
-1.33111e-14
-1.09963e-13
-1.05987e-14
7.03674e-16
-1.52908e-17
-3.52094e-19
0
-3.23689e-18
4.26533e-18
-1.32428e-18
-3.55864e-18
1.13885e-17
-1.65721e-18
-8.83965e-18
-3.83781e-18
0
2.52408e-18
0
8.8523e-19
0
0
-5.55005e-18
0
0
0
-8.10352e-19
0
0
3.60732e-18
-1.55253e-18
0
-3.63478e-17
-5.52581e-17
-5.28703e-18
0
0
0
1.76544e-17
-5.27141e-17
4.05388e-18
-5.63117e-18
-5.80093e-16
-1.49488e-16
-2.43127e-18
0
0
1.3253e-18
-3.62369e-18
4.18836e-18
-1.00544e-18
2.83242e-18
0
0
8.13347e-18
-1.30094e-17
0
-3.87692e-18
-1.04173e-18
-1.19156e-18
-4.88677e-18
7.72306e-18
0
-3.20417e-18
-4.13426e-18
8.04449e-19
1.36922e-18
4.60948e-19
0
-1.43717e-18
2.22374e-18
-1.42745e-18
-2.31361e-18
0
2.5125e-18
0
-1.2592e-17
1.85431e-18
3.7273e-18
0
5.02521e-18
1.84186e-19
-8.26777e-18
-9.51299e-18
2.22897e-18
0
0
-9.40966e-19
0
0
1.58273e-18
0
0
0
0
-8.40221e-18
0
4.82777e-19
0
4.88952e-19
0
0
1.30146e-18
0
0
-1.29974e-19
0
0
0
4.25211e-20
0
0
-5.31486e-18
3.83705e-18
-9.56728e-19
0
-2.60236e-18
0
-2.75446e-18
-8.12361e-18
0
1.45307e-18
0
5.98855e-18
-8.44981e-19
-1.90484e-18
-3.46865e-18
0
3.15867e-18
-1.35004e-18
0
0
0
8.64518e-18
1.57477e-18
-6.72228e-18
0
3.06149e-18
0
-7.62325e-19
0
-1.58166e-18
1.70868e-18
-9.26022e-19
0
-1.04709e-18
8.58299e-20
0
0
0
0
5.09746e-19
0
8.29939e-19
0
0
0
0
0
9.44177e-19
0
1.53594e-18
3.34574e-18
3.22717e-18
0
-1.34157e-18
0
-2.43664e-18
-4.03765e-18
0
0
0
-3.05179e-18
-7.0738e-18
0
3.116e-18
-6.77503e-18
0
0
0
-9.43586e-19
0
0
2.91283e-18
4.97566e-19
-3.70993e-19
0
3.43653e-19
0
-2.80646e-18
0
0
-1.13956e-18
0
1.68406e-18
-1.14832e-19
0
0
0
0
2.57771e-18
1.69191e-19
-3.08203e-18
-4.17919e-18
-3.12045e-18
2.10996e-18
0
2.47979e-18
0
5.73515e-20
0
-1.39089e-17
0
-5.639e-18
-6.3545e-18
0
0
-7.40669e-18
0
0
-2.31466e-19
1.93833e-19
0
5.6683e-19
-1.03355e-18
-7.6793e-19
1.9268e-19
0
6.33444e-19
0
0
0
2.5262e-18
4.91956e-18
0
2.01443e-18
0
8.71417e-19
-4.66148e-19
4.36106e-20
2.27699e-18
-3.44771e-19
0
3.45303e-18
1.61978e-18
0
-9.94184e-19
2.0345e-19
1.96048e-19
0
1.19114e-18
-4.55622e-18
5.26951e-18
-3.80857e-19
0
0
-7.53291e-19
4.98589e-18
-2.20466e-18
1.88138e-18
-1.86512e-18
-1.02837e-18
0
0
0
5.13469e-19
2.3898e-19
0
0
-2.68982e-18
-2.32664e-18
0
2.51748e-18
0
-6.72653e-19
0
2.91e-18
3.19174e-18
0
0
0
-4.51826e-19
5.9683e-19
0
7.24388e-19
-2.27324e-19
-8.057e-19
-1.27265e-18
0
0
-4.53659e-20
1.01821e-18
2.80339e-18
0
2.26915e-18
4.99227e-18
0
-1.54147e-18
1.19454e-18
-2.73472e-18
2.16995e-18
1.39271e-18
1.4727e-18
0
0
2.61586e-18
2.10372e-18
-1.60473e-18
0
0
-2.11208e-19
-9.18392e-19
0
0
0
0
-2.30688e-18
2.62279e-18
0
1.28802e-19
-3.08756e-18
0
3.47026e-18
0
5.36269e-19
-1.42775e-18
2.20235e-18
0
0
0
1.52512e-19
0
0
1.12796e-18
0
7.32276e-18
0
9.83242e-19
0
3.23644e-19
-1.35112e-18
-1.97041e-19
4.85934e-19
0
-1.51893e-18
-6.00228e-18
-3.63664e-18
2.71698e-18
4.57933e-19
-1.27247e-18
0
-2.85855e-18
0
-2.2986e-18
1.20139e-18
-7.60282e-19
0
0
2.33966e-18
4.75039e-19
0
-3.17869e-18
0
0
0
-6.4788e-19
-1.32519e-18
9.84752e-19
0
1.55927e-18
2.24173e-18
0
0
0
-2.2565e-18
0
0
0
0
0.000136818
0.000208905
-6.22547e-05
-0.000222618
-0.000390669
-0.000228387
-0.000256174
-5.15065e-05
0.000252526
1.85134e-05
-0.000137206
-0.000406117
-0.000723442
-0.000430854
-0.000656845
-0.000940443
-0.00103716
-0.000886381
-0.000546355
-4.16892e-05
0.000468966
0.000502179
0.00032883
-0.000302794
-0.000323664
-0.00027876
-1.89511e-05
0.000302053
0.000338968
3.4505e-05
-0.000213726
-0.000222735
-5.77352e-05
-0.000193079
5.64051e-05
0.00058979
0.0010059
0.00110051
0.000572364
0.000330048
0.000385773
0.000517878
-0.000301936
-0.000530273
-0.000576566
-0.00015932
-0.000710549
-0.000309947
0.000489593
-0.000335301
-0.000595308
-0.000799893
-0.00141734
-0.00102137
-0.00156693
-0.0024452
-0.00304477
-0.00293063
-0.00211731
-0.00106694
0.000192349
0.000239969
0.000857412
-0.000436175
-0.0002261
-0.000205739
0.000363993
0.000686107
-1.06394e-05
-0.00117633
-0.00150051
-0.000725625
-0.000150562
5.34669e-05
0.000149471
-0.00164314
-0.00136015
0.000945548
0.00157894
0.00106852
0.000197521
0.000141397
-0.000322729
-0.000250194
-5.97367e-05
0.000130299
8.69393e-05
3.38452e-05
0.000143377
-1.04283e-05
-0.000541412
-0.000277587
-0.000302704
-0.000230046
-0.000316651
-0.000592672
-0.000897013
-0.00119236
-0.000594757
-0.000209007
-0.00011051
-0.000332922
-1.21629e-06
-0.000235484
9.99317e-05
6.33189e-05
0.00040624
0.000486549
-9.4364e-05
-0.000809633
-0.00088636
-0.000237158
7.21862e-05
0.0013074
0.000280169
-0.00197317
-0.00236664
-0.000700092
0.000387903
0.000545359
3.20993e-05
1.79986e-06
-8.01833e-05
-4.12176e-05
-8.98201e-06
1.07146e-05
5.88628e-05
6.55418e-05
0.000105086
3.47157e-05
-0.000129031
-7.4108e-05
-4.18725e-05
-8.84359e-06
-3.96554e-06
-2.67011e-05
-5.91617e-05
-0.000146065
2.44297e-05
0.000220006
0.000285698
0.000145061
-3.51472e-05
-9.64168e-05
-5.03186e-05
-0.000120201
5.22883e-06
0.000245181
0.000304677
0.000108822
-2.50644e-05
5.8969e-06
2.90364e-05
0.000387844
0.000108588
-0.000378309
-0.000428342
-0.000149315
-1.17425e-06
8.29221e-05
-1.31405e-05
1.12199e-07
6.98303e-05
4.44037e-05
6.4979e-06
-6.84794e-06
-5.85154e-06
1.21446e-05
3.21252e-05
7.51172e-06
1.97009e-06
2.44966e-05
2.51404e-05
-6.38682e-06
-7.70049e-06
-1.14353e-06
3.60547e-06
6.68693e-06
-5.71093e-07
5.08276e-05
0.000188653
0.000123125
4.18614e-06
8.46859e-06
3.144e-05
3.27737e-05
-2.05973e-05
3.37874e-05
0.000128978
0.00010286
3.10308e-05
5.41708e-06
9.00972e-07
5.86988e-06
7.42507e-08
-6.15396e-05
-4.95486e-05
-1.31407e-06
1.56104e-06
-1.28406e-05
-2.59524e-05
6.8117e-06
8.99449e-05
5.67771e-05
-3.37943e-06
-8.46455e-06
-9.74723e-06
1.4845e-06
1.33623e-05
1.10703e-05
-3.48923e-06
3.89592e-05
5.43191e-05
-1.40562e-05
-2.9464e-05
-1.05082e-05
3.31575e-06
1.90554e-06
1.74584e-05
-1.99302e-06
9.26808e-05
8.17643e-05
5.6806e-06
-0.000131123
4.30867e-05
9.11181e-05
2.35389e-05
-1.68018e-06
4.02808e-05
5.32366e-05
1.47065e-05
-8.97158e-06
-4.67875e-06
-5.20071e-06
7.28103e-06
-1.42702e-05
-8.80048e-06
-4.26437e-07
-6.07725e-06
-1.63791e-05
-1.8429e-05
4.00624e-06
4.53823e-05
4.68533e-05
-4.51351e-06
-1.29441e-06
-6.00416e-06
-2.2818e-07
4.70905e-06
1.87774e-05
-2.04974e-07
3.68042e-05
6.14996e-05
-4.63477e-06
-3.28044e-05
-1.45937e-05
-1.48129e-07
-2.02885e-06
1.52918e-05
6.12215e-06
2.74417e-05
6.92066e-05
1.72133e-05
-0.000107474
2.78449e-05
5.08557e-05
1.17204e-05
-9.84485e-07
4.84852e-06
1.02603e-05
9.05604e-06
2.6691e-06
1.72844e-06
-5.57101e-07
6.37479e-06
-1.1956e-06
-8.68219e-06
1.131e-07
-1.11902e-05
-9.61652e-06
-8.43142e-06
-7.50134e-07
1.60536e-05
2.18822e-05
-1.86971e-06
-3.0219e-06
-1.35791e-06
-3.75624e-07
-3.374e-07
1.27721e-05
3.94673e-06
1.64002e-05
4.47899e-05
3.08292e-06
-2.06667e-05
-1.29435e-05
-1.30153e-06
-2.92556e-06
3.27022e-06
1.46678e-05
3.39997e-06
5.28973e-05
2.02045e-05
-2.04524e-05
1.19521e-05
2.01705e-05
3.57414e-06
-9.55025e-08
4.41876e-07
1.23944e-07
3.5244e-07
1.2878e-07
6.45746e-07
8.39697e-07
1.2081e-06
2.88199e-06
-5.94677e-06
3.92433e-06
-6.30495e-06
-7.79282e-06
-1.93149e-06
-1.72951e-06
6.00537e-06
7.12097e-06
-7.26902e-07
-1.43883e-06
-1.84879e-07
-2.40211e-08
-8.06062e-08
3.56969e-06
5.92505e-06
8.75469e-07
2.45913e-05
5.28605e-06
-1.01035e-05
-8.47266e-06
-1.32515e-06
-2.04341e-06
-1.57327e-06
1.12181e-05
4.93254e-08
2.90706e-05
1.40726e-05
-2.71714e-06
1.11065e-06
6.13444e-06
6.86278e-07
-4.73862e-08
5.58168e-08
3.00041e-09
-1.14035e-09
-9.60571e-08
-1.81721e-07
7.22784e-08
-1.88351e-07
1.34102e-06
-5.76249e-07
2.2856e-06
-7.33631e-07
-3.66739e-06
-1.15842e-06
-1.54458e-06
2.08652e-06
2.17327e-06
4.48679e-07
-1.85036e-07
-1.21367e-08
1.13366e-07
9.77058e-08
6.74304e-07
2.53963e-06
-3.96032e-07
3.56685e-06
3.50851e-06
-2.36653e-06
-2.77468e-06
-6.50673e-07
-6.90598e-07
-2.17484e-06
5.21385e-06
2.79843e-07
1.16254e-05
7.11267e-06
-2.9269e-06
-5.95701e-07
9.868e-07
-1.57544e-07
-1.35762e-07
-2.65634e-09
-8.30773e-12
-1.66366e-10
6.05811e-09
-1.25372e-08
-4.51122e-09
-1.52306e-07
2.17466e-07
2.59372e-08
5.76932e-07
3.77044e-07
-6.52047e-07
-5.08327e-07
-4.44812e-07
2.13131e-07
3.76665e-07
1.61731e-07
-1.8462e-08
-3.88064e-10
3.92485e-09
1.28165e-07
2.02263e-07
4.45249e-07
3.63189e-08
-1.04189e-06
8.31035e-07
-3.04732e-08
-6.22255e-07
-3.07933e-07
9.59862e-09
-4.96375e-07
1.25757e-06
5.24431e-07
3.20981e-06
2.72342e-06
-2.34354e-06
-6.42184e-07
-5.62251e-07
-3.14105e-07
-5.30468e-09
6.80206e-10
9.53852e-11
2.62809e-11
4.57441e-10
1.32795e-09
-1.50091e-09
-7.91608e-09
-6.7348e-09
1.09238e-07
4.40724e-09
2.80014e-07
1.55097e-08
7.259e-10
-7.29226e-08
-9.46041e-08
2.34672e-08
-4.55609e-09
-1.67099e-09
-3.14502e-11
2.12733e-09
5.75831e-09
7.62431e-10
1.1216e-07
1.18424e-08
-3.15232e-08
1.5597e-07
1.83338e-07
-2.05661e-08
-1.34507e-08
-1.91205e-10
-4.66277e-07
8.11451e-09
8.67519e-08
5.08186e-07
5.28736e-07
-7.2268e-07
-4.3323e-07
-6.52161e-07
-1.30262e-08
1.11535e-10
1.57972e-11
2.77748e-13
-2.91568e-13
-3.59831e-12
-1.85663e-11
2.38662e-11
7.12786e-11
-8.15091e-10
-4.01965e-12
2.57771e-10
5.96691e-09
5.84275e-09
7.06016e-10
5.31144e-09
-1.3352e-08
-1.10504e-09
-4.6094e-11
-1.37885e-11
9.39274e-13
-2.45571e-11
5.1861e-10
1.03918e-10
3.47828e-11
-1.22806e-09
-6.01733e-09
3.65024e-09
2.59804e-09
9.65698e-11
-5.03563e-12
-2.02721e-10
1.43689e-09
-1.01899e-09
1.2442e-08
-3.78751e-08
3.14185e-08
-4.51016e-08
-3.29893e-07
-1.93993e-08
-1.52307e-10
8.00115e-12
7.31756e-13
3.76664e-14
3.23581e-15
1.78401e-14
1.63782e-13
-2.60232e-13
-1.49774e-13
2.98398e-12
-4.16067e-15
-8.98039e-13
5.21591e-11
-1.79883e-10
5.41257e-12
-1.2105e-11
-2.12204e-10
-3.46907e-11
8.3056e-13
2.22594e-14
-1.43697e-14
9.69117e-14
-5.7217e-13
-1.12089e-12
5.83696e-15
-2.15105e-12
-2.6143e-11
3.83959e-11
2.45063e-11
1.27102e-12
-1.60925e-13
7.89454e-13
2.4787e-12
-5.8646e-11
2.23724e-09
-1.83842e-10
-1.4929e-09
-8.86592e-09
-4.14645e-09
-2.51104e-11
-1.82094e-12
1.06633e-13
8.70402e-15
3.15467e-16
-9.27255e-18
-2.21196e-17
-9.72348e-16
2.09613e-15
-7.38332e-16
-9.28721e-15
-1.06779e-15
-5.75462e-15
2.59901e-13
-5.76669e-13
6.84716e-15
-2.41141e-13
-1.81411e-12
-2.78206e-13
8.2488e-15
5.67025e-16
9.84427e-17
-3.14592e-17
-2.29851e-15
-1.31834e-17
-3.86711e-16
5.83695e-15
-6.57906e-14
2.04579e-13
1.50934e-13
-2.88503e-15
-4.98926e-16
1.27073e-15
-4.18395e-14
2.08108e-13
-9.32623e-12
7.73391e-14
-2.38666e-12
-4.41407e-11
-1.47141e-11
2.72815e-14
3.69426e-14
7.32503e-16
5.11447e-17
3.328e-18
0
0
0
8.24063e-18
6.74425e-18
2.18543e-17
-4.51111e-18
-3.40378e-18
1.01313e-15
-2.58233e-15
-1.00566e-19
-9.28745e-16
-9.21059e-15
-1.08282e-15
2.20729e-17
0
0
5.97442e-19
6.64327e-18
3.42661e-18
3.13916e-18
1.81132e-17
-1.43157e-16
8.94774e-16
-6.56556e-16
7.19534e-19
0
-7.86615e-18
3.89833e-17
1.34221e-16
1.87362e-14
1.7724e-16
-5.06124e-16
-2.21879e-13
-8.42826e-14
2.37364e-17
1.38255e-16
-1.36666e-17
0
1.0278e-18
0
1.31808e-17
2.59203e-18
-4.27085e-18
3.54768e-18
0
7.90219e-18
2.62566e-18
2.86695e-18
-1.53923e-17
0
5.21478e-18
-2.75877e-17
-1.27218e-17
0
0
2.47877e-18
-7.52346e-19
7.48554e-19
0
0
0
-1.76574e-18
4.88174e-18
-8.97398e-18
1.72934e-18
0
0
2.8962e-18
-9.9929e-19
-1.82915e-17
-2.78262e-18
6.35222e-18
-1.74409e-15
-1.50769e-15
-7.68178e-17
0
0
-1.17402e-19
2.6482e-18
3.68001e-18
0
0
0
0
-8.67636e-19
0
1.15132e-17
2.75834e-18
2.10972e-18
0
0
0
0
4.13203e-18
4.87812e-18
0
8.7498e-20
-2.34388e-19
0
1.55668e-18
-2.96103e-18
6.17938e-18
0
3.85047e-18
0
0
0
0
0
-1.15961e-18
0
6.81593e-19
-7.85948e-18
0
5.82511e-18
0
-3.91151e-18
0
0
0
0
0
0
0
2.44061e-18
0
9.31601e-18
1.6776e-18
0
1.11519e-18
4.12826e-18
0
3.16795e-18
0
0
-6.05298e-19
0
-5.44367e-20
-1.87381e-18
0
0
0
0
0
0
1.76568e-18
1.21314e-20
-1.57956e-19
-3.66219e-19
0
0
0
5.64591e-18
-8.02916e-18
0
-2.57301e-18
4.29099e-18
0
0
-1.98954e-18
0
0
0
0
1.26031e-18
0
0
0
0
0
1.12484e-18
0
2.12119e-18
0
2.26545e-19
0
0
0
0
-3.06427e-18
0
0
0
1.43166e-18
-2.24832e-18
0
0
1.22031e-18
-2.1017e-19
7.83225e-19
0
0
0
9.9896e-18
-3.6665e-18
3.99473e-18
1.16345e-18
0
0
5.13117e-18
0
0
-4.00211e-18
1.08715e-17
0
0
0
0
0
0
0
-1.96678e-18
-4.32781e-18
0
4.84449e-19
1.09152e-20
0
0
1.06208e-18
-2.60509e-18
0
-9.52605e-19
0
5.1928e-18
4.42462e-19
-3.39103e-18
1.67249e-18
5.59798e-19
-4.63532e-19
1.37629e-18
-1.40822e-18
-1.40576e-18
3.33782e-18
5.19494e-18
-4.54474e-18
4.67243e-18
-1.34487e-18
0
0
0
0
0
0
6.15301e-18
0
-2.8562e-19
1.13755e-17
-9.95952e-18
-3.77551e-18
0
-1.30046e-18
1.30862e-18
0
1.01434e-19
0
-1.64108e-18
0
-1.74758e-19
-1.73181e-18
-2.5564e-18
-1.2558e-18
-1.27754e-18
8.75425e-18
-5.23914e-18
3.76306e-18
0
4.59526e-18
0
3.99645e-19
1.28999e-18
-4.10406e-19
-2.60123e-19
0
0
-3.54581e-18
8.33104e-19
0
7.12463e-20
0
0
1.67988e-18
-4.85791e-18
-4.52315e-18
-1.14337e-18
6.91411e-18
-5.77149e-18
-1.24712e-19
1.18903e-17
0
-2.08799e-18
-2.04597e-18
-9.25324e-19
7.19176e-19
0
1.10398e-18
4.31188e-19
-1.0344e-19
-6.6206e-19
0
0
-2.88329e-19
0
0
2.21287e-18
-1.49193e-18
-3.59166e-18
-4.46127e-18
0
3.52501e-20
0
0
7.66998e-19
0
0
7.96083e-20
-1.22309e-18
2.42649e-18
1.10839e-18
9.53267e-19
-1.33974e-18
1.91926e-19
6.68456e-18
0
0
0
0
-5.34713e-18
0
2.31842e-18
-2.21193e-18
0
1.26636e-18
6.9994e-19
0
1.13205e-19
0
0
0
1.16982e-19
-6.22448e-19
1.33151e-18
-4.02748e-18
2.49831e-18
1.50793e-18
0
2.58e-18
0
0
-1.79781e-18
0
1.70018e-18
-2.69483e-18
-2.60262e-18
0
0
-2.14371e-18
2.66151e-18
2.13621e-18
-2.05382e-19
-7.03006e-19
0
-6.78877e-20
4.53618e-19
-1.81152e-19
0
4.55257e-18
4.17277e-18
-1.32514e-18
-7.3503e-19
0
2.26155e-18
-8.1001e-19
0
7.10752e-19
0
2.38319e-18
3.08756e-18
-2.03097e-18
-5.74589e-19
5.77359e-19
-1.35162e-18
0
0
-2.44798e-18
0
0
-1.40478e-18
0
2.40321e-18
2.56914e-19
1.85493e-18
2.68424e-18
-1.12915e-18
0
7.42678e-19
-1.64275e-18
0
0
0
0
1.86686e-18
0
0
0
0
3.05736e-18
0
0
6.99195e-19
-0.000132701
5.11554e-05
-0.000167818
-0.000104226
0.00012084
-1.32322e-05
-0.000154628
6.05907e-06
-0.000105673
-5.63659e-05
-0.000186425
-0.000318486
-0.000369278
-0.0010935
-0.000608751
-0.000726213
-0.000769551
-0.000838785
-0.000918586
-0.0005843
0.000193178
0.000881454
0.000558791
0.000691894
0.000276268
9.61633e-05
0.000189825
0.00022226
6.27635e-05
-0.000217083
-0.00036979
-0.000423068
-0.000340901
-6.19128e-05
0.00027788
0.000626994
0.000736197
0.00065899
0.000504503
0.000342492
0.000317876
-3.09304e-05
-0.000593775
-8.74432e-05
0.000695792
0.000424767
1.89903e-05
0.000349089
-0.000301692
-0.000114948
-0.000241197
-0.000436241
-0.000754171
-0.00194297
-0.00179846
-0.00254015
-0.00306706
-0.00338788
-0.00308509
-0.00112393
0.000113437
0.000435535
4.28975e-05
0.00288821
0.00146488
0.000800781
0.000827706
0.000553845
-0.000170534
-0.0011762
-0.00111326
-0.000645658
-0.000103123
0.00026379
-0.000229135
-0.000919993
-0.000987211
-0.000244772
0.000797504
0.00154569
0.000790552
-0.000313798
-0.000510289
-3.5667e-05
0.000340733
0.000252493
0.000134465
0.000260895
-3.31088e-05
-5.48045e-05
-5.57476e-05
4.37321e-05
-0.000230551
-0.000282744
-0.000619256
-0.00107716
-0.00152245
-0.00181403
-0.00143168
0.000300583
0.000777606
-0.000671536
-0.000722751
0.00158476
0.000699534
0.000345397
0.000331908
0.000162403
-0.000187965
-0.000703733
-0.000428452
0.000113716
0.000594917
0.000654152
-0.000309031
-0.00142361
-0.00165774
-0.00107339
2.32e-05
0.000950782
0.000189805
-0.000104347
-0.000142556
-3.42254e-05
2.03576e-05
5.93173e-06
-5.00524e-06
3.31564e-05
-2.76676e-05
-2.98883e-05
-7.66337e-05
7.36754e-06
-1.18299e-05
-3.52338e-05
-5.48144e-05
-0.000112865
-0.000195477
-0.000282495
-0.000278521
0.00016145
0.000620133
8.87928e-06
7.14591e-05
0.000309626
3.44213e-05
-7.03687e-05
-5.39087e-05
2.93668e-05
3.02754e-05
-9.58259e-05
-5.47046e-05
2.45248e-05
0.000136746
0.000214975
3.40938e-05
-0.000225002
-0.000278947
-0.00018471
-2.76532e-05
0.000232892
4.24008e-05
1.74001e-05
0.000118434
3.96488e-05
-6.9604e-06
7.08509e-07
5.1409e-06
-1.99346e-06
-6.54294e-07
-6.59133e-07
1.45041e-06
5.06506e-06
-8.75216e-06
-6.9848e-06
3.15821e-06
5.67933e-06
1.02534e-05
1.15907e-05
1.46741e-05
6.10983e-06
0.000220812
0.000121607
6.36666e-05
7.44623e-06
8.96388e-06
-4.70123e-06
-3.1036e-05
-6.10599e-07
1.40032e-05
8.08059e-07
-3.73625e-07
7.35154e-07
8.91759e-06
2.17221e-05
3.79554e-06
-2.05612e-05
-6.45459e-06
-5.76914e-07
-2.45256e-06
6.81059e-05
3.2934e-05
2.20217e-05
0.000175395
7.55801e-05
-1.87615e-05
-9.94715e-06
1.07159e-05
-2.79494e-06
-2.03112e-05
3.48397e-06
2.49805e-05
2.7591e-05
-2.46607e-05
-3.74541e-05
-1.70942e-05
-1.10585e-05
1.14603e-05
1.06787e-05
1.97662e-05
4.43059e-06
5.38477e-05
0.000138044
2.26323e-05
-1.36875e-05
1.88317e-05
4.29918e-05
2.24947e-05
2.8011e-06
-1.19156e-05
-1.05491e-05
-1.08643e-05
-4.73152e-06
-7.73711e-07
1.41492e-06
-2.62305e-06
-3.44214e-06
-1.1338e-06
-7.56932e-07
-1.66776e-06
2.1059e-05
2.46222e-05
8.72715e-06
8.63682e-05
8.45825e-05
-1.61937e-05
-2.20416e-05
6.94403e-06
2.23956e-06
-8.98527e-06
3.6495e-06
1.46048e-05
1.97376e-05
-1.98433e-05
-4.16871e-05
-3.08963e-05
-1.75745e-05
1.46543e-06
3.0506e-06
-2.4201e-06
4.10066e-06
-3.13285e-06
6.86824e-05
2.16145e-05
1.23079e-06
-1.05366e-05
3.31452e-05
2.77051e-05
6.28936e-06
-5.42327e-06
-1.47891e-05
-3.05692e-06
-1.51673e-06
-2.11204e-07
1.12772e-08
-2.26401e-06
-3.01045e-06
2.51101e-07
-5.92852e-06
-5.23928e-06
4.14943e-06
1.15548e-05
1.0254e-07
4.82605e-05
6.12121e-05
-5.55888e-06
-1.29921e-05
-3.6993e-06
5.14183e-06
4.31415e-07
1.12126e-06
5.84779e-06
7.41149e-06
-5.62875e-06
-2.12236e-05
-2.59806e-05
-1.04133e-05
-1.41832e-06
1.76502e-06
-1.17603e-06
1.01486e-06
-2.26206e-06
1.58203e-05
1.85797e-05
1.60771e-07
-8.47234e-06
1.27973e-05
1.20694e-05
3.10136e-06
-8.10892e-07
-2.26486e-06
-1.44102e-07
-4.38356e-09
4.09699e-09
-1.03129e-07
-3.78428e-07
-1.6571e-06
3.9591e-07
-1.99492e-06
-3.03255e-06
1.78847e-06
5.58081e-06
-2.20249e-07
2.4534e-05
2.65903e-05
-1.08037e-06
-4.4713e-06
-6.78691e-06
2.30043e-06
2.49757e-06
2.27666e-07
5.32703e-07
4.88008e-06
4.86402e-07
6.78437e-08
-6.99433e-06
-3.42774e-06
-9.7856e-07
1.77728e-07
-2.71665e-07
1.2409e-07
-3.58459e-07
3.13893e-06
1.0098e-05
4.4418e-07
-2.78357e-06
2.89715e-06
2.24281e-06
6.55217e-07
-5.58281e-09
2.87584e-07
-2.04907e-09
2.09846e-09
1.73978e-10
-8.17463e-09
2.93613e-07
-2.61492e-07
-7.23763e-08
-2.63371e-07
-7.97175e-07
1.47388e-06
1.32449e-06
-4.56354e-09
5.57134e-06
4.58643e-06
-5.36064e-07
-1.37489e-06
-2.50749e-06
-5.68456e-07
6.07327e-07
2.63291e-07
-3.12383e-07
1.29742e-06
2.82325e-06
6.4928e-07
-5.81304e-07
-6.17454e-07
-3.53647e-07
-1.03808e-07
-2.15268e-07
1.46183e-07
3.62604e-07
7.34335e-07
4.31167e-06
2.10772e-07
-6.83992e-07
-3.09368e-07
-6.82174e-07
-6.59872e-08
2.50512e-07
2.2745e-07
6.70556e-09
-3.02852e-09
-1.87211e-09
5.79835e-10
7.82046e-09
1.1728e-08
5.1991e-10
-2.65984e-08
-5.19044e-08
5.90428e-07
5.64442e-08
3.70443e-08
9.34182e-07
9.31901e-07
-1.34693e-07
-1.13422e-07
-4.88907e-07
-3.76753e-07
-2.6099e-08
4.02905e-10
-1.38173e-07
1.54462e-07
1.49794e-06
3.21294e-08
-3.79052e-10
-3.64559e-09
-5.70903e-09
-2.36102e-09
-2.42104e-09
-3.08692e-08
5.84332e-07
2.94233e-07
1.1462e-06
-2.53888e-08
-5.44072e-07
-7.34611e-07
-4.9941e-07
-2.67815e-09
2.73299e-07
1.60941e-08
1.81204e-10
2.9522e-11
3.91042e-11
-1.51059e-12
6.56946e-09
-3.05943e-09
-1.32074e-09
-1.69282e-08
-1.79036e-08
4.6867e-08
3.2094e-08
-2.31354e-08
1.16983e-07
4.24602e-07
2.86777e-08
-8.46368e-08
-2.44579e-07
-1.4967e-08
-9.93388e-09
-1.31805e-09
-1.08908e-09
2.10103e-10
1.02171e-08
3.1109e-09
1.5203e-10
1.10265e-09
1.97161e-10
-6.33841e-10
5.86463e-10
-7.99697e-09
3.51734e-08
3.40418e-08
3.98833e-07
4.59521e-09
-7.35589e-08
-2.25419e-07
-2.12469e-07
3.14603e-10
1.24635e-09
4.82814e-11
-2.79709e-13
-3.84516e-13
-4.20522e-13
-2.42178e-12
-8.15829e-11
6.75816e-10
-6.2256e-12
1.31728e-10
-4.62174e-09
-1.08326e-07
-3.49355e-09
-3.457e-08
-2.10647e-08
1.1234e-08
4.9829e-09
-7.8954e-09
-8.77683e-10
-2.93459e-10
-1.11583e-10
-5.87712e-12
-1.79911e-12
-2.66519e-12
-3.89481e-12
2.89962e-11
-1.81008e-13
3.76871e-12
-2.19328e-15
3.42255e-12
-2.78701e-12
7.11954e-11
6.3248e-10
-1.58138e-09
1.00534e-08
-2.54177e-09
-3.94877e-09
-9.76032e-09
-9.08321e-10
5.88908e-12
7.43659e-12
3.35019e-13
1.13162e-14
4.33163e-15
2.94074e-15
9.8701e-14
7.46564e-13
-3.9149e-12
2.82753e-13
1.14514e-11
-1.36759e-10
-4.97523e-09
5.496e-10
-6.41447e-09
-5.25452e-09
-1.26349e-10
6.11528e-11
2.30874e-11
8.34341e-14
-5.36293e-14
3.39668e-14
1.13594e-14
6.84344e-16
-8.8127e-15
-1.30867e-13
3.59628e-13
1.22174e-15
1.11294e-14
2.69363e-15
1.83344e-16
-5.61302e-14
8.05066e-14
-1.43607e-11
1.07313e-11
-3.49174e-11
-1.45969e-09
-5.02575e-10
-3.45743e-11
-3.55038e-12
3.39262e-13
3.4002e-14
7.75655e-16
-7.57176e-17
-1.53752e-17
0
-1.9574e-15
-1.56054e-15
1.97851e-14
1.08204e-14
1.3114e-13
-2.58047e-12
-5.11806e-11
2.0981e-12
-6.31618e-11
-7.87795e-11
-2.40977e-12
4.07636e-13
3.23216e-14
-3.51088e-16
3.84904e-17
-1.69819e-17
-3.98667e-18
0
3.54493e-17
-2.46692e-16
2.65162e-15
5.73079e-18
8.20266e-18
1.50019e-17
-1.0297e-16
6.15285e-16
-3.57973e-15
1.00894e-13
-1.33374e-14
1.63871e-13
-5.05351e-12
-2.58533e-13
1.58695e-14
-1.72036e-14
-9.80851e-16
-1.52324e-17
1.66719e-18
-6.20463e-18
-5.63374e-18
2.86398e-18
3.73646e-17
-4.09214e-17
-1.14252e-16
1.70112e-16
3.30487e-16
-2.70217e-14
-1.6397e-13
2.1948e-15
-3.7252e-13
-4.96999e-13
-1.43052e-14
1.48342e-15
4.20338e-17
6.2164e-18
-4.14623e-19
7.95721e-19
0
2.20711e-18
0
-1.19577e-18
3.74592e-18
8.03531e-18
0
-7.47495e-20
-2.65609e-18
-2.36151e-18
5.92373e-18
-4.00465e-16
1.08623e-16
8.08555e-16
-2.72809e-14
-5.60171e-15
-6.46222e-16
-6.08538e-16
-4.99039e-17
8.98198e-18
0
-8.54874e-18
0
3.59859e-18
-8.32295e-18
-8.32086e-18
4.872e-18
2.52152e-17
-5.97837e-18
-1.54467e-16
3.6347e-16
-5.00264e-18
-1.73784e-15
-2.057e-15
-7.84867e-17
0
0
0
-8.27965e-19
6.07031e-19