/*--------------------------------*- C++ -*----------------------------------*\
| =========                 |                                                 |
| \\      /  F ield         | OpenFOAM: The Open Source CFD Toolbox           |
|  \\    /   O peration     | Version:  5.0                                   |
|   \\  /    A nd           | Web:      www.OpenFOAM.org                      |
|    \\/     M anipulation  |                                                 |
\*---------------------------------------------------------------------------*/
FoamFile
{
    version     2.0;
    format      ascii;
    class       volScalarField;
    location    "50.4676134421789371";
    object      TPDw;
}
// * * * * * * * * * * * * * * * * * * * * * * * * * * * * * * * * * * * * * //

dimensions      [0 1 -2 1 0 0 0];

internalField   nonuniform List<scalar> 
60000
(
-0.000585121
-0.00164291
-0.0021211
-0.000685942
0.000173974
0.000499296
0.000789427
0.00196864
0.00237866
0.000975196
-0.000380938
-0.000194905
-0.000303661
-0.000884914
-0.00156222
-0.00148976
-0.0010208
-0.000514973
0.000532817
0.002215
0.0036443
0.00248582
-0.000949136
-0.00430485
-0.00550791
-0.00404377
-0.00145453
0.000166883
0.00102787
0.00105072
0.000801698
0.000326556
0.000533635
-0.000378291
0.000354676
0.00182474
0.00220099
0.00104136
0.000269718
2.36983e-05
-0.000728036
-0.00217483
-0.00284283
-0.00100981
6.78386e-05
0.000502754
0.000950338
0.00247532
0.00312916
0.00134384
-0.000562665
-0.00036925
-0.000692568
-0.00140978
-0.00228407
-0.00227424
-0.00166254
-0.000995243
0.000652166
0.00330608
0.00579673
0.0041425
-0.00137795
-0.00697762
-0.00909571
-0.00658571
-0.00215076
0.000572954
0.00186048
0.00163623
0.00101662
0.000281183
0.000705334
-0.000741436
0.000486838
0.00275104
0.00333774
0.00173898
0.000545545
0.00015643
-0.000275301
-0.000871756
-0.00118308
-0.000382202
7.01679e-05
0.000172696
0.000304408
0.000863383
0.00115749
0.000477433
-0.000317219
-0.000193805
-0.000294602
-0.000577487
-0.000902222
-0.000918479
-0.000691063
-0.000553366
0.000178185
0.00138935
0.00260223
0.0018708
-0.000629885
-0.00322116
-0.00421526
-0.0029527
-0.000863919
0.000364797
0.000911893
0.000839825
0.00059175
0.000268182
0.000325494
-0.000400096
0.000196837
0.00114077
0.00132859
0.000693965
0.000269115
0.000112455
-5.71803e-05
-0.000169617
-0.000238158
-6.56518e-05
2.01701e-05
2.77602e-05
4.50647e-05
0.000128133
0.000185648
7.90313e-05
-9.05188e-05
-5.29459e-05
-5.81512e-05
-8.16066e-05
-9.83511e-05
-8.51413e-05
-7.76991e-05
-0.000118166
4.16475e-05
0.000404963
0.000694345
0.000407674
-0.00011656
-0.000471248
-0.000597589
-0.000417423
-0.000110703
9.4301e-05
0.00022461
0.000234606
0.000191667
0.000102611
6.99208e-05
-5.11168e-05
4.31632e-05
0.000248104
0.000264459
0.00011097
4.17007e-05
2.59904e-05
-5.10292e-06
-8.31712e-06
2.02845e-06
4.75082e-06
-4.0034e-06
-9.6882e-06
-1.2506e-05
-6.64456e-06
1.04461e-05
6.84236e-06
-2.02159e-05
-1.09288e-05
5.05831e-07
2.40659e-05
6.38584e-05
7.6381e-05
3.20093e-05
-9.63584e-06
2.00213e-05
0.000225315
0.000344748
5.5781e-05
4.02323e-05
0.000276534
0.000304479
0.000117208
1.31895e-05
1.18152e-07
4.57578e-05
7.30284e-05
6.26051e-05
2.33305e-05
1.71288e-06
2.42707e-06
5.10549e-07
3.10794e-05
3.55626e-05
2.39805e-06
-1.50481e-06
1.13272e-06
1.84804e-06
9.45004e-06
2.96383e-05
1.17394e-05
-5.20147e-06
-1.14455e-05
-1.75147e-05
-2.18633e-05
-1.36775e-05
-2.17699e-06
-1.86037e-06
-4.326e-06
3.12087e-06
1.95362e-05
5.41362e-05
6.4998e-05
3.13026e-05
1.23807e-05
1.0116e-05
0.000161476
0.000308164
2.35408e-05
6.27905e-05
0.000371897
0.000352439
0.000100883
7.02205e-06
-1.05486e-05
-3.76166e-06
2.90003e-05
3.97225e-05
1.14621e-05
-4.06798e-06
4.95103e-06
-4.58228e-06
-7.30203e-06
-1.81881e-07
-7.838e-06
-4.09556e-06
-4.5606e-06
1.49745e-07
5.91533e-06
1.6642e-05
7.39171e-06
-2.3759e-06
-5.5848e-06
-1.06136e-05
-1.42498e-05
-1.16683e-05
-1.99833e-06
2.39605e-07
-2.92123e-06
-3.50025e-07
5.89856e-06
1.96498e-05
2.91099e-05
1.5902e-05
9.13205e-06
2.3802e-06
9.999e-05
0.000262328
4.11154e-05
3.57146e-07
0.00022418
0.000214402
5.0201e-05
7.81819e-07
3.80785e-07
-8.45019e-06
-1.68987e-06
1.44569e-05
1.19387e-05
3.13756e-07
1.95053e-06
-8.21502e-07
-8.25005e-06
-3.9486e-06
-3.5931e-06
-1.56738e-06
-3.37536e-06
-5.19512e-07
2.76292e-06
6.52691e-06
3.21875e-06
-5.04674e-07
-9.38261e-07
-3.0358e-06
-5.16682e-06
-4.8072e-06
-9.41618e-07
-4.07205e-07
-3.10665e-06
-1.43123e-06
1.75548e-06
5.26425e-06
8.33266e-06
4.07806e-06
2.05495e-06
-1.59944e-06
4.76954e-05
0.000177385
3.64922e-05
-3.2762e-05
0.000106975
0.000105649
2.27123e-05
2.54602e-06
3.37405e-07
1.02267e-06
-2.45912e-06
-5.33967e-07
2.88154e-06
3.6334e-07
-2.07801e-07
2.00591e-07
-3.07099e-06
-2.68857e-06
-1.46609e-06
-4.938e-07
-1.11154e-06
-2.49375e-07
8.18601e-07
2.01335e-06
1.05043e-06
-8.64314e-08
-7.84112e-09
-1.44222e-08
-7.07589e-07
-1.38143e-06
-2.0781e-07
-3.84514e-07
-2.9254e-06
-1.75897e-06
7.46578e-07
7.58906e-07
2.03362e-06
-8.41301e-08
1.25392e-08
-2.8671e-06
1.41402e-05
8.99682e-05
2.29084e-05
-3.31713e-05
4.42033e-05
5.35956e-05
1.04301e-05
6.52075e-07
-1.86538e-07
2.86423e-07
2.92076e-07
-5.02847e-07
-1.61589e-07
7.5501e-09
-5.79924e-07
-6.37899e-08
-4.21214e-07
-9.77484e-07
-5.47462e-07
-1.98045e-07
-3.73087e-07
-6.52518e-08
3.1521e-07
5.81517e-07
3.06911e-07
-1.07612e-07
-8.71507e-09
7.75341e-10
-1.83272e-09
-3.70088e-07
-2.06638e-07
-1.19158e-07
-1.6525e-06
-1.1958e-06
3.91142e-07
-2.11654e-07
3.4202e-07
1.19556e-08
-1.86522e-07
-1.87094e-06
1.55574e-06
3.1743e-05
1.22336e-05
-2.17962e-05
1.69008e-05
2.40389e-05
4.70195e-06
3.80493e-07
-3.14666e-10
-2.89868e-07
6.71811e-09
1.66588e-08
-6.77532e-09
-6.51396e-09
-2.82641e-09
-1.09982e-07
6.29469e-09
-1.76892e-07
-1.56029e-07
-1.33166e-07
-1.36959e-07
-2.72146e-09
1.10736e-08
7.05622e-08
2.44754e-08
-5.24842e-10
-5.14566e-10
4.3501e-09
5.69186e-09
-1.21492e-08
-1.19828e-08
-2.50327e-09
-3.43375e-07
-5.08129e-07
1.36638e-07
-1.55564e-07
-6.51965e-08
1.19193e-07
2.28053e-07
-6.66048e-07
-5.71925e-08
6.99989e-06
4.78992e-06
-8.89911e-06
4.72468e-06
6.99625e-06
1.08976e-06
2.83826e-07
-4.86217e-09
1.30079e-09
-9.6036e-10
1.11279e-09
4.07955e-10
1.09483e-11
6.1597e-10
-1.48918e-10
-1.97752e-11
3.38974e-10
-5.49281e-09
-3.92912e-09
2.28931e-09
-8.50644e-10
7.67503e-10
1.06592e-08
1.49333e-09
-1.11435e-11
-5.05204e-12
-1.28956e-11
1.05928e-10
3.40909e-10
-2.81792e-09
1.737e-09
-3.54255e-07
-5.51388e-08
1.93602e-07
-7.9947e-08
-2.03151e-07
-1.70095e-08
2.60046e-08
-1.70609e-07
1.91217e-08
-5.91803e-07
1.25916e-06
-1.98819e-06
9.96361e-07
2.01645e-06
9.27555e-07
4.61638e-09
-6.90898e-11
-1.47166e-11
4.32018e-12
-4.45546e-12
-2.0589e-12
-5.57572e-13
-2.00814e-12
2.92264e-13
1.10871e-12
4.95342e-12
-2.24525e-10
-5.13022e-11
-1.17971e-11
-1.37425e-12
2.11653e-11
1.48684e-10
2.42631e-11
-3.95639e-13
-7.84604e-14
-4.24513e-15
1.53993e-13
-2.58827e-12
1.41208e-10
2.54228e-10
-9.02203e-09
-1.33393e-08
7.93081e-09
-2.84999e-09
-2.47666e-09
4.40839e-09
3.95171e-09
2.1786e-09
3.85288e-08
-1.24711e-07
2.21725e-07
-3.07701e-07
1.66845e-07
8.38357e-07
2.44721e-08
1.43242e-10
-3.52024e-12
-2.97257e-13
-2.39854e-14
1.0567e-14
7.96811e-15
4.74907e-15
1.72689e-15
5.22901e-16
-7.02038e-15
5.0422e-15
-3.85571e-13
-5.36324e-13
2.23203e-12
2.88083e-15
1.49084e-13
1.24082e-12
2.17785e-13
-5.2704e-15
-9.89024e-16
1.25556e-16
-9.36296e-16
-2.14787e-15
-1.83793e-13
-3.07075e-13
-1.29627e-10
9.50174e-10
4.17454e-10
-4.77657e-12
-1.46765e-11
9.86708e-12
7.65945e-11
1.73146e-10
-2.22251e-10
1.27056e-09
7.75206e-10
-3.42164e-09
4.47064e-09
2.6338e-09
6.31625e-11
6.04138e-16
1.01383e-14
1.078e-15
6.12966e-17
-1.04466e-17
-2.73027e-17
-2.40541e-17
1.32273e-17
0
3.69474e-17
-2.00031e-18
-3.20005e-16
-3.69272e-15
1.43747e-14
3.39459e-17
3.05496e-16
5.87366e-15
1.03399e-15
-3.66243e-17
-6.67883e-18
0
1.42494e-18
8.18217e-19
2.27695e-16
6.97987e-16
-8.27968e-14
3.05319e-12
4.65228e-12
3.37529e-13
-1.97005e-13
2.19324e-14
1.05279e-13
-1.27395e-13
1.5941e-12
-7.99343e-12
-3.59257e-13
-4.13078e-12
1.7451e-11
7.80584e-12
2.88125e-13
9.9864e-16
-5.71796e-17
-4.97689e-18
-1.80895e-18
-3.95669e-18
0
-7.18232e-18
-3.67975e-18
0
0
2.06977e-18
0
-1.6037e-17
5.83856e-17
0
-1.11793e-17
6.75375e-18
-9.80754e-18
0
-4.0878e-18
0
1.172e-18
1.77376e-18
0
2.989e-18
-1.22912e-16
5.88269e-15
4.28555e-14
9.15114e-15
-2.12724e-15
0
1.90226e-16
2.79303e-16
-4.75143e-15
2.2955e-14
1.5147e-17
-3.5161e-15
7.53086e-14
3.61744e-14
1.94409e-15
4.83656e-17
-2.33793e-18
0
1.25823e-18
-4.55838e-19
2.6676e-18
-5.82187e-18
1.06351e-17
2.0244e-18
-1.48687e-17
-3.07006e-18
0
5.32409e-18
0
1.72756e-18
0
0
3.86347e-18
0
0
0
-6.90066e-19
0
0
3.77821e-18
2.20344e-18
0
3.17845e-16
1.16749e-18
-1.2353e-17
0
0
0
8.31075e-18
-6.28481e-17
6.33574e-19
-5.66472e-18
3.2828e-16
2.06762e-16
1.47667e-17
0
0
-3.55365e-18
2.11967e-18
3.62046e-19
5.23408e-19
2.76768e-18
0
0
5.39157e-18
-4.75189e-18
0
-1.08194e-17
-5.59427e-18
-2.74782e-18
1.89715e-18
-2.95421e-18
0
-1.27667e-19
-1.24427e-20
1.0698e-18
-2.57098e-19
2.28843e-18
0
-4.26387e-18
-1.85718e-18
5.31688e-18
7.33886e-18
0
3.82571e-18
0
7.46678e-18
-2.84433e-18
-2.89669e-19
0
-1.83888e-18
-3.22592e-19
3.3022e-18
7.64652e-18
-5.93176e-18
0
0
3.6305e-18
0
0
1.2917e-18
0
0
0
0
-4.00178e-18
0
5.2163e-18
0
2.09932e-18
0
0
1.71157e-18
0
0
2.3667e-18
0
0
0
2.909e-18
0
0
1.63274e-17
-4.67562e-18
-4.98725e-19
0
4.11859e-18
0
1.74155e-18
-6.75571e-19
0
-1.02909e-18
0
-3.76108e-18
2.95669e-18
-1.12616e-18
1.07993e-18
0
5.2975e-19
-2.28508e-18
0
0
0
-4.34328e-18
4.1345e-18
-6.79089e-18
0
-3.50659e-18
0
1.61696e-18
0
1.248e-18
2.31126e-18
-2.60076e-18
0
-3.3702e-18
8.24351e-19
0
0
0
0
-4.40874e-18
0
-6.57222e-18
0
0
0
0
0
-6.03102e-19
0
-2.26453e-18
-8.66107e-19
-7.73187e-19
0
1.05219e-18
0
2.65583e-18
3.6722e-19
0
0
0
8.30304e-19
4.53694e-18
0
5.49773e-18
-1.79649e-18
0
0
0
2.10041e-19
0
0
2.07751e-18
1.66466e-18
-1.10564e-18
0
-4.29817e-19
0
1.05772e-18
0
0
4.25964e-18
0
-1.55312e-18
-2.14851e-18
0
0
0
0
1.29789e-18
-1.49545e-18
-5.56891e-19
-3.55873e-19
-1.02898e-18
3.041e-18
0
3.78052e-18
0
-1.84355e-18
0
4.3918e-18
0
3.22258e-18
7.96178e-18
0
0
3.22775e-18
0
0
-1.8844e-18
-1.3659e-18
0
-2.95846e-19
-4.99429e-19
6.8151e-19
-3.62141e-19
0
2.88605e-18
0
0
0
-3.12303e-18
-5.22808e-18
0
-2.09183e-18
0
-1.04747e-18
9.1396e-20
-1.99645e-19
-1.47398e-18
-1.8328e-19
0
3.02634e-18
1.59734e-18
0
-4.70405e-19
1.69683e-19
2.60195e-18
0
2.48205e-19
3.10988e-18
-4.60636e-18
-2.71909e-19
0
0
-5.04773e-18
3.61772e-18
1.65076e-18
-8.5421e-19
1.14791e-18
2.06884e-18
0
0
0
-2.55147e-19
-3.77634e-20
0
0
1.80547e-18
-3.18587e-18
0
-2.26285e-18
0
1.56007e-18
0
2.09092e-19
1.71152e-18
0
0
0
-1.27791e-18
2.63566e-18
0
1.84766e-18
5.61261e-19
-2.52698e-19
-7.09664e-19
0
0
3.81968e-19
-1.70595e-18
-2.09905e-18
0
-3.1377e-18
-3.97421e-18
0
3.59089e-19
2.77126e-19
4.19315e-20
-9.62266e-19
-3.77354e-18
2.04529e-18
0
0
1.77357e-18
1.54403e-19
1.72583e-19
0
0
-3.60399e-18
-1.15775e-18
0
0
0
0
-2.5984e-18
2.75241e-18
0
4.10505e-18
-9.44595e-19
0
1.81904e-18
0
2.19839e-19
-2.39505e-19
8.40563e-19
0
0
0
-1.31781e-18
0
0
-4.90776e-19
0
-2.64397e-18
0
-1.98192e-19
0
-2.24101e-18
1.54362e-18
1.01681e-18
4.89963e-19
0
-1.16523e-18
-1.71817e-18
-1.93839e-19
-4.26695e-19
-1.03196e-18
-1.74496e-18
0
-2.5716e-18
0
-2.67413e-19
-1.39289e-18
-3.72721e-18
0
0
2.02485e-18
-1.36902e-19
0
-1.61749e-18
0
0
0
-1.74321e-18
-1.47838e-18
1.2056e-18
0
-1.49162e-18
-1.92702e-18
0
0
0
1.53285e-18
0
0
0
0
7.1116e-05
-0.00183893
-0.00117121
0.000680015
0.000685171
-0.000245349
-0.000329695
2.39171e-05
9.86643e-05
0.000508162
0.00113429
0.00113579
0.000388826
-0.000213939
-0.000436586
-0.000245683
-0.000702052
-0.00249188
-0.00204217
0.000707002
0.00320875
0.00341915
0.00278789
-0.000805316
-0.00356796
-0.00542898
-0.00385614
-0.000656517
0.00176213
0.0025171
0.00249619
0.00228755
0.00177985
0.000990937
0.000981402
0.000583118
0.000423429
0.000857335
0.00175271
0.00192417
1.71419e-05
-0.00222637
-0.00146253
0.000855975
0.000910005
-0.000323093
-0.000522452
8.4222e-06
0.000204401
0.000631585
0.00151993
0.00153308
0.000487112
-0.000580512
-0.000815835
-0.000488655
-0.00117697
-0.0040121
-0.00344423
0.000886238
0.00512862
0.00571203
0.00476128
-0.000969523
-0.00549672
-0.00864222
-0.00610236
-0.000886077
0.00298778
0.00410607
0.00403059
0.00366858
0.00281797
0.00148307
0.00140953
0.000863683
0.000534785
0.0011198
0.00205464
0.00227504
1.41232e-06
-0.000789406
-0.000508202
0.000371067
0.000384876
-6.03598e-05
-0.000229455
1.21194e-05
4.80832e-05
0.000184415
0.000587033
0.000600168
0.000199719
-0.000229686
-0.000377148
-0.000287504
-0.000610902
-0.00181563
-0.0016719
0.00035402
0.00256736
0.00279471
0.00223578
-0.000279013
-0.00242137
-0.00414029
-0.00303314
-0.00041465
0.00163684
0.00222909
0.00217351
0.00188107
0.00134552
0.000612891
0.000635799
0.000367724
0.000177391
0.000377744
0.00071757
0.000791338
6.23603e-06
-9.8217e-05
-5.83956e-05
4.21237e-05
3.87868e-05
-2.41493e-06
-3.11597e-05
2.65865e-06
5.7965e-06
2.512e-05
8.29613e-05
8.24186e-05
2.49412e-05
-2.77457e-05
-4.60759e-05
-4.28249e-05
-0.000102379
-0.000286402
-0.000315868
6.15665e-05
0.00078489
0.000806741
0.000504116
-1.78673e-05
-0.000363817
-0.00078676
-0.000695178
-0.00011313
0.000443285
0.000591043
0.000532159
0.000421565
0.000295073
0.000144441
0.000128936
7.61016e-05
2.89496e-05
5.58169e-05
0.000100058
0.000105987
-1.97563e-06
3.50363e-05
3.52378e-05
-3.16411e-05
-3.6808e-05
5.46955e-07
3.41881e-06
8.8668e-07
-8.21644e-07
3.84163e-06
-2.7947e-06
-2.06875e-05
-1.31612e-05
1.4121e-05
2.18605e-05
1.10765e-05
9.88555e-06
2.60764e-05
1.88098e-05
2.71722e-06
0.000309447
0.000323756
7.26065e-05
-3.50959e-06
0.000110705
8.22057e-05
-5.64246e-05
-2.22694e-05
9.53372e-05
0.000111248
5.90495e-05
1.79263e-05
1.1608e-05
4.90238e-06
1.20929e-05
1.21843e-05
2.81294e-06
8.91102e-07
-1.93221e-05
-1.94115e-05
-4.63944e-06
3.01985e-05
4.13167e-05
-2.61843e-05
-3.00569e-05
1.66347e-07
6.36008e-06
1.44888e-07
2.41555e-06
1.16327e-06
-3.81711e-06
-2.42037e-05
-2.14626e-05
1.12002e-05
2.4244e-05
1.34066e-05
1.02014e-05
1.56349e-05
5.38209e-05
7.78582e-07
0.000152332
0.000232868
2.84965e-05
-2.31605e-05
0.000133814
0.000153593
2.92263e-05
-3.56986e-06
2.7676e-05
3.66434e-05
1.31006e-05
-1.08728e-05
-1.12249e-05
-1.02203e-05
-5.99167e-06
2.99862e-06
1.70123e-06
-1.7955e-06
-2.64952e-05
-3.5338e-05
-6.04408e-06
1.76192e-05
3.04392e-05
-1.0739e-05
-1.48798e-05
4.86406e-09
3.9841e-06
-2.14831e-08
3.17411e-06
-4.45334e-07
2.25002e-08
-1.09248e-05
-2.64947e-05
-7.73973e-08
1.5379e-05
7.82408e-06
3.86613e-06
-9.36124e-06
2.4746e-05
6.37956e-06
5.21724e-05
0.000169181
4.17668e-05
-3.49203e-05
7.09826e-05
7.64489e-05
1.22897e-05
-7.51751e-07
4.26695e-06
7.14086e-06
7.25269e-06
2.22022e-06
1.93602e-06
-9.35809e-07
-4.40002e-06
2.86545e-07
2.1971e-06
2.2083e-08
-1.486e-05
-2.86864e-05
-5.36161e-06
8.30633e-06
1.26375e-05
-1.29538e-06
-5.6705e-06
-1.34886e-07
1.94126e-06
9.71924e-08
1.08553e-06
-8.27982e-07
-1.79195e-06
-1.96242e-06
-2.0287e-05
-8.21226e-06
6.11056e-06
3.57924e-06
1.99492e-06
-9.18409e-06
3.99108e-06
4.97067e-06
9.68658e-06
9.59488e-05
3.45538e-05
-2.67596e-05
2.44314e-05
2.98318e-05
5.12645e-06
-2.22149e-07
5.53857e-07
1.8565e-07
3.88697e-07
1.11207e-07
5.7539e-07
1.30058e-06
-8.411e-07
-8.92482e-07
1.88224e-06
5.61693e-07
-4.32337e-06
-1.37474e-05
-2.73618e-06
3.69241e-06
6.13377e-06
4.57456e-07
-1.88856e-06
-5.3154e-08
6.43759e-07
2.84131e-07
5.01052e-08
-1.48031e-07
-2.48249e-06
2.71244e-07
-7.63878e-06
-8.84017e-06
-5.25434e-07
1.16699e-06
1.36875e-06
-4.2836e-06
-1.40077e-06
2.85303e-06
8.89694e-07
4.4074e-05
1.89239e-05
-1.59259e-05
1.22658e-05
1.15586e-05
2.43328e-06
1.87291e-07
1.0361e-07
1.35186e-08
-2.46046e-09
-9.91168e-08
-1.21631e-07
1.44354e-07
5.20531e-08
-3.80555e-07
3.50125e-07
7.73283e-07
-4.10269e-07
-4.58528e-06
-1.11347e-06
1.76702e-06
2.79321e-06
2.71496e-07
-6.04409e-07
-2.85155e-08
1.84174e-08
1.95755e-07
2.03932e-08
-1.05902e-07
-1.06984e-06
2.80063e-07
-3.29007e-06
-3.81078e-06
-1.29941e-06
2.5715e-07
5.62423e-07
-1.05576e-06
-1.36131e-06
9.29608e-07
-6.57033e-07
1.60042e-05
7.82231e-06
-8.11799e-06
6.28762e-06
4.51014e-06
1.39418e-06
2.18708e-07
-1.29121e-08
3.92205e-11
4.39782e-09
7.20671e-09
-6.82445e-09
-1.98467e-09
-1.6831e-08
-3.02128e-08
-2.06084e-08
3.70204e-07
2.45278e-07
-8.26654e-07
-2.98587e-07
4.50409e-07
5.41448e-07
-8.94862e-09
-1.94769e-07
-3.87608e-09
1.49307e-09
2.40657e-09
8.41112e-08
-7.5873e-08
-2.67261e-07
-3.44885e-08
1.68017e-07
-9.56019e-07
-6.09572e-07
-2.60504e-08
1.14732e-07
1.18994e-08
-1.82727e-07
1.74516e-07
-3.5233e-07
4.2127e-06
2.71132e-06
-3.20539e-06
2.03185e-06
1.54206e-06
7.97224e-07
1.17043e-08
-1.02768e-09
-1.35925e-10
-6.06928e-11
4.95825e-10
4.2778e-10
-1.58854e-10
-2.86676e-09
-1.16071e-10
-1.0122e-07
5.14863e-09
2.57676e-07
2.45675e-08
1.30336e-09
5.94876e-07
6.59647e-07
4.50864e-09
-1.20142e-08
-1.00948e-10
1.29344e-10
1.35471e-10
2.32062e-09
-3.5828e-10
-6.19433e-08
-1.62851e-08
3.51738e-08
-1.9802e-07
-3.85941e-07
-5.30014e-09
-4.3319e-10
7.9218e-10
-5.9113e-08
1.04446e-09
-9.94172e-09
8.51049e-07
5.30507e-07
-8.34986e-07
6.28951e-07
7.82493e-07
3.86485e-08
4.69448e-10
-8.33536e-12
-2.46796e-13
4.84418e-13
-3.25498e-12
-5.42252e-12
1.17562e-13
4.18681e-11
-1.14322e-10
3.75476e-12
4.35901e-10
7.43789e-09
1.84211e-08
-2.35486e-09
1.12151e-08
2.07257e-08
9.36359e-10
-1.61542e-10
-2.39936e-11
-9.22362e-13
1.06037e-11
6.21789e-11
1.8141e-10
-2.3531e-11
2.12564e-09
9.95723e-09
-8.91537e-10
-3.18653e-09
-3.61137e-10
-1.5054e-12
-1.04217e-10
-3.13699e-10
-1.35786e-10
9.3535e-10
2.29362e-07
3.56827e-08
-3.903e-08
-1.14068e-08
3.7235e-08
1.23328e-09
1.32162e-11
-2.31514e-13
-2.15658e-14
-3.42077e-15
1.66349e-14
5.25771e-14
-2.83131e-14
-3.92126e-13
7.8069e-13
3.04886e-15
-1.81784e-12
6.80492e-11
-1.162e-09
-6.43234e-12
7.66806e-11
2.34294e-10
1.07212e-11
-2.35098e-12
-1.17663e-13
4.65103e-15
-1.13654e-13
5.63849e-13
-1.46561e-13
-1.11994e-14
2.18981e-12
5.90371e-11
1.38105e-11
-2.1095e-11
-2.53374e-12
-1.14183e-13
3.96278e-13
1.92213e-12
-1.85635e-11
3.07505e-10
1.28655e-10
-2.23667e-09
-5.367e-09
1.46412e-09
3.9113e-10
1.27604e-11
1.47942e-13
-1.75309e-15
-1.29031e-16
6.03177e-18
-5.6074e-17
-4.16086e-16
2.23821e-16
2.63072e-15
-4.03889e-15
4.48626e-16
-2.27978e-14
3.68718e-13
-3.03596e-12
-8.83191e-15
2.71306e-13
1.47939e-12
5.77764e-14
-1.11371e-14
-4.73054e-16
-1.92799e-17
4.79863e-16
-2.92789e-15
-3.37188e-15
-3.58431e-17
-3.43208e-15
2.44531e-13
4.00756e-13
-1.52072e-13
-2.06793e-14
-7.74004e-16
1.20623e-15
9.94712e-15
3.77813e-13
-4.73321e-12
-5.99888e-14
-3.98365e-12
-2.51802e-11
1.39938e-11
3.11301e-12
1.16655e-13
1.60901e-15
-3.40751e-17
-2.79943e-18
0
0
0
1.46766e-18
-1.0396e-17
1.71254e-17
1.17868e-20
-1.25021e-16
1.74878e-15
-8.22386e-15
-8.13134e-19
6.72797e-16
4.90783e-15
8.04863e-17
-3.04292e-17
0
0
-5.07751e-19
5.61021e-18
8.28113e-18
8.85975e-19
-1.62339e-17
8.97471e-16
3.468e-15
-1.343e-15
-1.65766e-16
0
-1.41546e-17
-1.1328e-17
-2.20464e-15
1.78933e-14
-5.62542e-16
-1.00125e-15
-8.68908e-14
1.22094e-13
2.29064e-14
1.17134e-15
1.01925e-17
0
-3.9602e-18
0
3.37982e-19
-1.71352e-18
-2.44382e-18
-2.22837e-18
0
4.64765e-18
-4.5687e-18
5.8848e-18
-3.53994e-17
0
-2.91794e-18
1.15615e-17
2.47818e-18
0
0
-4.51021e-19
2.55781e-19
9.03492e-19
0
0
0
6.59899e-18
2.76251e-17
-2.03597e-18
-7.84045e-18
0
0
-9.4678e-19
6.59784e-18
-3.31464e-17
3.11853e-18
5.82173e-17
-3.908e-16
9.78975e-16
1.95303e-16
0
0
5.17169e-18
-4.42627e-18
5.73094e-19
0
0
0
0
-1.12331e-17
0
-4.32159e-18
1.12573e-17
4.07706e-18
0
0
0
0
-2.65133e-18
-2.12353e-18
0
-6.71322e-19
-1.03509e-18
0
8.56899e-19
1.55221e-18
-1.18644e-17
0
1.44841e-18
0
0
0
0
0
-6.27417e-18
0
-4.48552e-18
-1.84396e-18
0
-5.79084e-18
0
2.08402e-18
0
0
0
0
0
0
0
2.06289e-18
0
-5.07936e-18
-4.23602e-18
0
1.10783e-18
-2.07061e-18
0
6.08605e-19
0
0
-1.35986e-18
0
-2.95225e-19
1.67208e-18
0
0
0
0
0
0
-2.42452e-18
3.06076e-18
-2.17553e-18
-4.75322e-19
0
0
0
1.31684e-18
3.09163e-18
0
-1.02183e-19
-5.28374e-18
0
0
-2.80907e-18
0
0
0
0
-4.07942e-18
0
0
0
0
0
-1.4222e-18
0
1.70401e-18
0
2.05586e-18
0
0
0
0
3.55443e-19
0
0
0
-5.03718e-18
-2.38984e-20
0
0
3.06507e-18
-1.19635e-18
7.15278e-19
0
0
0
-2.07663e-18
2.24354e-19
3.67143e-19
1.28003e-18
0
0
-3.95491e-18
0
0
7.5115e-18
3.75221e-18
0
0
0
0
0
0
0
4.90384e-20
-4.65005e-18
0
1.28982e-18
-1.58329e-18
0
0
-7.64344e-19
-4.00285e-19
0
-4.62548e-19
0
-3.78439e-18
-1.79276e-18
6.72708e-19
-1.42973e-18
-1.71327e-18
1.19504e-18
-4.20812e-20
-2.1331e-19
-1.25669e-18
1.51174e-18
6.84075e-19
-3.54446e-19
1.05507e-18
-8.73285e-19
0
0
0
0
0
0
-2.23747e-18
0
2.19413e-19
4.94767e-18
-3.00451e-18
-2.81957e-19
0
-1.0112e-18
2.1003e-18
0
2.44792e-18
0
3.52041e-18
0
-1.08851e-18
3.07676e-19
-9.0077e-19
1.95477e-18
-2.44765e-18
-8.9962e-19
3.05825e-18
-5.04501e-18
0
-7.61752e-19
0
2.38473e-18
3.64175e-18
-4.5042e-19
-6.31776e-19
0
0
-9.91866e-19
-2.5556e-18
0
1.66512e-18
0
0
-4.70777e-19
1.14889e-18
-2.41078e-19
2.01082e-18
-6.90273e-19
2.14527e-18
-7.54775e-18
3.90196e-18
0
-6.16392e-19
2.69774e-18
3.50799e-18
-4.37438e-18
0
7.01316e-19
-1.4821e-18
-1.52934e-18
-6.27189e-19
0
0
1.0565e-18
0
0
-1.85645e-18
-3.73378e-18
-9.37031e-19
4.13925e-19
0
2.19109e-18
0
0
-4.79423e-19
0
0
1.41507e-18
6.77602e-19
8.6241e-19
1.03154e-18
-8.32655e-19
7.16332e-19
-8.34938e-20
-1.32151e-18
0
0
0
0
2.42468e-18
0
3.44386e-18
9.97573e-20
0
-2.14537e-18
2.93718e-18
0
2.6435e-19
0
0
0
3.11554e-18
-6.17357e-18
4.11448e-18
-3.55943e-18
-2.82021e-18
-4.69002e-18
0
1.71828e-18
0
0
1.85927e-18
0
1.45081e-18
-8.95982e-19
-2.83971e-19
0
0
1.27873e-19
5.10859e-19
6.73873e-19
-1.05348e-18
1.34294e-18
0
1.93459e-18
2.52811e-20
-1.48077e-18
0
-8.58877e-19
-1.69295e-18
1.56072e-18
-9.3764e-19
0
3.73212e-18
1.2235e-18
0
-3.14585e-20
0
1.14775e-19
-1.10493e-21
4.23773e-19
4.89922e-19
2.8029e-18
-2.60014e-18
0
0
2.6962e-18
0
0
-7.61855e-19
0
-1.34188e-18
-2.02936e-18
2.21208e-18
-3.74159e-19
9.56718e-19
0
6.69683e-19
-1.15676e-18
0
0
0
0
-3.38912e-19
0
0
0
0
2.77321e-19
0
0
1.08187e-18
-0.0017132
-0.00246163
0.000663789
0.00298658
0.00259433
0.000655006
-0.00122087
-0.00182044
-0.00140356
0.000549905
0.00161262
0.0015905
0.00132369
0.000639356
-0.00023243
-0.0010983
-0.00220609
-0.00321397
-0.00359192
-0.00164487
0.00213395
0.00454264
0.00535252
0.00363457
0.0010486
-0.0013716
-0.00162771
-2.10537e-05
0.00131878
0.00155263
0.000864532
0.000154829
-0.000333049
0.000447038
5.73558e-05
-0.00100149
-0.00129558
0.000417243
0.00155151
0.000594011
-0.00191102
-0.00305637
0.000870835
0.00404308
0.00370308
0.00103518
-0.0016409
-0.00257531
-0.00207247
0.000774253
0.00236352
0.00248451
0.00216205
0.00105076
-0.000259499
-0.00157711
-0.00342734
-0.00517089
-0.00589104
-0.00274612
0.00326942
0.00705091
0.00828249
0.00569502
0.00177676
-0.00199013
-0.00255461
-0.00013809
0.00203183
0.00238801
0.00148077
0.000320023
-0.000469876
0.000834316
0.000229134
-0.00147603
-0.00184241
0.000339556
0.0018706
0.000696173
-0.000617848
-0.00114957
0.000372362
0.0016413
0.0015185
0.000452065
-0.000627358
-0.0010676
-0.000912725
0.000365907
0.00104973
0.00107803
0.000983377
0.000490376
-7.48357e-05
-0.000667011
-0.00152374
-0.00238068
-0.00281356
-0.00132675
0.00175045
0.0036384
0.00388609
0.00256774
0.00084675
-0.000955737
-0.001342
-9.77996e-05
0.00110145
0.00135211
0.000895189
0.000279407
-0.000158787
0.000407669
4.75495e-05
-0.000597535
-0.000637767
0.000144841
0.00066077
0.000282217
-0.000110447
-0.000170375
5.40388e-05
0.00021756
0.000202442
6.34967e-05
-0.000105054
-0.00019041
-0.000176831
6.54821e-05
0.000216819
0.000197348
0.00016923
7.67983e-05
-9.08653e-06
-0.000106191
-0.000256476
-0.000402882
-0.000530017
-0.000321117
0.000506745
0.00111086
0.00101708
0.000523567
0.000164712
-0.000214338
-0.00036495
-5.33634e-05
0.000267496
0.000316685
0.000212186
8.47218e-05
-1.8643e-05
6.22136e-05
-1.12775e-05
-0.00013856
-0.000110949
4.00882e-05
0.000126256
6.38107e-05
-2.28174e-05
3.56001e-05
-3.09497e-05
-0.000134598
-0.00010799
-2.26056e-05
2.32243e-05
1.68938e-05
2.85644e-06
9.79272e-07
-2.26976e-06
-2.06221e-05
-3.43092e-05
-1.88239e-05
1.98982e-06
1.57195e-05
1.85326e-05
1.73661e-05
2.30171e-05
-4.34207e-05
0.000150868
0.000415567
0.000254154
1.11639e-05
-1.55556e-05
-4.5032e-06
-4.5812e-05
-1.34916e-05
2.05505e-05
3.97807e-06
-5.58517e-06
3.18228e-06
2.30187e-08
7.2174e-06
-3.79774e-06
-1.98702e-05
-9.29191e-06
3.18348e-07
1.13216e-05
1.9566e-05
-1.47193e-05
4.00678e-05
-4.24075e-05
-0.000166054
-0.000134754
-2.90589e-05
4.16454e-05
4.56142e-05
3.05502e-05
-5.59051e-06
-2.95717e-05
-5.01e-05
-6.0822e-05
-2.94931e-05
5.24673e-07
2.21694e-05
3.08642e-05
1.66864e-05
3.3149e-05
2.39011e-05
4.04173e-05
0.000233879
0.000135637
-5.06874e-05
-4.87648e-05
2.46727e-05
1.63526e-05
2.75852e-06
-8.59421e-06
-2.15435e-05
-1.86395e-05
-6.04379e-06
-1.4816e-07
1.16433e-06
-5.08136e-07
-3.59165e-06
2.35564e-06
-5.9882e-06
-1.08981e-05
6.51645e-06
-9.59881e-06
1.69214e-05
-2.81856e-05
-0.000118477
-9.24403e-05
-1.98295e-05
3.15196e-05
3.399e-05
2.46664e-05
-2.38649e-06
-1.76162e-05
-3.29143e-05
-4.62561e-05
-2.15908e-05
8.91238e-07
1.17881e-05
1.57189e-05
5.57252e-06
-4.92032e-06
1.63474e-05
-2.99798e-06
9.55381e-05
9.40081e-05
-1.5228e-05
-3.36459e-05
1.34688e-05
1.42195e-05
2.8687e-06
-3.5335e-06
-5.44704e-06
-3.02025e-06
-7.35793e-07
4.52123e-09
2.70014e-07
1.49527e-07
-1.93087e-06
-3.08335e-07
-3.83184e-06
-9.52153e-06
1.83069e-06
-4.99137e-06
6.67909e-06
-7.6527e-06
-6.6828e-05
-4.94176e-05
-1.22612e-05
1.81374e-05
1.85127e-05
1.31024e-05
6.93903e-07
-6.81599e-06
-1.44004e-05
-2.34628e-05
-1.09667e-05
7.70723e-07
4.81735e-06
6.1438e-06
5.01082e-06
-2.53458e-06
1.71851e-06
-3.31537e-06
2.27129e-05
4.75948e-05
9.39844e-07
-1.54364e-05
3.68948e-06
6.38677e-06
1.37115e-06
-9.3175e-07
-7.46207e-07
-1.3009e-07
7.79139e-11
-3.29056e-08
6.94482e-09
2.38808e-08
-3.81548e-07
-3.18313e-07
-8.90789e-07
-3.67124e-06
1.11066e-06
-2.43465e-06
3.09578e-06
-3.3626e-06
-2.95818e-05
-2.12113e-05
-4.61171e-06
7.44613e-06
7.66529e-06
5.00524e-06
1.00358e-06
-1.83972e-06
-5.91015e-06
-8.46754e-06
-3.57952e-06
3.22003e-07
1.42833e-06
1.79869e-06
1.63268e-06
-6.60401e-07
1.24295e-07
-7.79171e-07
5.04579e-06
1.81299e-05
1.85573e-06
-5.62188e-06
2.56834e-07
2.43799e-06
6.20628e-07
-2.91615e-07
-2.04696e-07
-3.68629e-09
-1.30443e-09
1.57049e-09
-1.5675e-09
3.16287e-10
-6.98417e-09
9.5222e-08
-1.08326e-07
-7.45876e-07
8.34568e-07
-7.68347e-07
1.75898e-06
-1.18772e-06
-1.0449e-05
-7.13312e-06
-1.46357e-06
2.34864e-06
2.07543e-06
1.36862e-06
4.4166e-07
-7.87736e-08
-1.24153e-06
-2.46946e-06
-6.43404e-07
3.31558e-08
2.52642e-07
4.25285e-07
6.27363e-07
-6.08359e-07
1.20835e-07
-1.42472e-07
1.44903e-06
6.06627e-06
7.66427e-07
-1.71929e-06
-4.56944e-08
9.27145e-07
2.85265e-07
-1.45064e-07
-2.33757e-07
-4.53147e-09
1.37539e-09
1.34347e-09
5.15267e-10
5.79507e-10
-2.77237e-10
8.2484e-08
-1.29246e-08
-4.68416e-08
4.4699e-07
-3.02006e-07
5.17384e-07
-3.33495e-07
-2.38696e-06
-2.52649e-06
-4.67675e-07
3.26966e-07
6.03153e-07
2.5006e-07
2.1414e-07
4.19033e-08
-2.96288e-07
-8.56567e-07
-2.80228e-08
-1.39709e-11
1.49209e-09
4.78751e-09
5.08642e-09
-6.9595e-09
-1.83702e-08
-1.17109e-07
5.82866e-07
1.59257e-06
-8.56434e-08
-6.17594e-07
3.86169e-08
3.7558e-07
1.11135e-07
-7.23967e-08
-1.24302e-08
-1.1094e-10
-6.40706e-12
-1.17619e-11
-1.11453e-10
9.01361e-10
1.31343e-10
4.99479e-09
-1.23445e-08
-2.0279e-08
1.13541e-07
-3.4068e-07
4.16432e-08
-8.36118e-08
-6.25936e-07
-4.3702e-07
-3.0703e-08
1.2655e-07
2.2356e-08
1.26111e-08
5.53698e-09
7.42718e-10
-2.51735e-09
-1.18775e-08
-2.13005e-09
1.61171e-10
-5.83844e-10
-1.25967e-10
7.90343e-10
1.6956e-09
-3.32158e-09
-4.12077e-09
1.75364e-07
7.42555e-07
1.30364e-08
-8.2047e-08
9.21305e-08
3.18633e-07
1.20084e-08
-4.67542e-10
-2.99748e-11
1.81124e-13
6.75045e-14
1.39815e-13
3.08742e-12
-9.78985e-12
-6.57327e-11
1.86194e-11
1.44371e-10
-8.13453e-09
6.10647e-08
-7.47823e-09
2.26788e-08
-7.67031e-09
-3.36716e-08
-1.4655e-08
-3.37818e-09
7.54431e-10
4.00996e-10
7.57082e-11
6.53333e-12
1.10954e-12
-3.90638e-12
-7.15867e-11
-2.44806e-11
9.74649e-13
-2.35248e-12
1.22361e-15
-2.74573e-12
-2.02282e-11
1.66252e-11
-5.50535e-11
2.36377e-09
2.27357e-08
-5.1348e-09
-9.51883e-09
1.01612e-08
3.43855e-09
9.94085e-11
-2.23895e-12
-1.69626e-13
-8.18701e-15
-6.17211e-16
-1.09716e-15
-7.20695e-14
7.22404e-14
5.8683e-13
-5.31577e-13
1.5776e-11
-2.54929e-10
1.18255e-09
5.3208e-10
3.06239e-09
-1.08507e-09
-3.97485e-10
-8.67584e-11
-5.88471e-12
4.40604e-13
1.05277e-13
-2.54787e-14
-2.79987e-15
-8.70253e-17
-3.06769e-15
-1.98595e-13
-2.46698e-13
-6.81175e-15
-1.32193e-15
-1.46993e-15
-1.19073e-16
1.61891e-13
3.68614e-15
2.59276e-12
-1.04784e-11
-7.76142e-11
-2.39243e-09
-3.39155e-10
1.09902e-10
2.12901e-11
6.26581e-13
-5.65382e-15
-5.11629e-16
7.23752e-17
2.24088e-18
0
1.35512e-15
-3.56418e-15
-3.51606e-15
-1.08353e-14
2.75053e-13
-3.46679e-12
1.06277e-11
2.06362e-12
2.12708e-11
4.21949e-12
-2.92411e-12
-3.16535e-13
-4.20695e-15
-3.58577e-17
-1.58533e-16
3.20182e-17
6.62109e-19
0
-8.0347e-18
-4.05562e-17
-2.67689e-15
-2.95994e-16
9.56396e-19
-1.14061e-17
8.02428e-17
-8.34358e-16
-5.89989e-17
-3.78871e-14
1.87186e-14
4.23447e-13
-9.50277e-12
-2.02413e-13
1.15405e-12
1.57476e-13
3.7764e-15
-3.64611e-17
-4.78258e-18
5.29936e-18
5.53771e-19
-5.13225e-18
-2.7031e-17
4.24445e-17
8.8545e-18
-9.04006e-17
3.11078e-15
-3.53372e-14
8.58732e-14
6.09763e-15
1.47218e-13
4.98092e-14
-1.14454e-14
-8.6466e-16
-4.15489e-18
-6.97743e-19
2.08775e-18
-2.90441e-18
0
-2.53462e-19
0
5.81301e-19
-1.06459e-17
-1.04857e-17
0
5.00021e-18
3.88107e-18
2.73115e-18
3.36905e-18
2.06477e-16
-1.69663e-16
3.18966e-15
-3.23805e-14
1.60163e-14
9.25804e-15
6.42875e-16
1.84184e-17
3.64481e-18
0
6.19672e-18
0
3.58944e-18
5.82625e-18
4.42272e-18
-3.32026e-19
-3.4686e-18
2.70524e-17
-2.73257e-16
6.42595e-16
9.13656e-18
9.78379e-16
3.6868e-16
-1.97511e-17
0
0
0
-1.3176e-18
-2.96116e-18
-2.33865e-18
-1.05941e-18
0
5.37779e-19
3.32831e-18
0
1.65173e-18
4.27435e-18
0
0
-5.69804e-19
-3.3844e-18
-7.69203e-18
1.15841e-17
-1.26453e-16
1.33404e-16
6.44017e-17
0
0
0
0
-1.30368e-17
0
0
2.33287e-18
0