/*--------------------------------*- C++ -*----------------------------------*\
| =========                 |                                                 |
| \\      /  F ield         | OpenFOAM: The Open Source CFD Toolbox           |
|  \\    /   O peration     | Version:  5.0                                   |
|   \\  /    A nd           | Web:      www.OpenFOAM.org                      |
|    \\/     M anipulation  |                                                 |
\*---------------------------------------------------------------------------*/
FoamFile
{
    version     2.0;
    format      ascii;
    class       volScalarField;
    location    "50.4676134421789371";
    object      TPrimePrime2Mean;
}
// * * * * * * * * * * * * * * * * * * * * * * * * * * * * * * * * * * * * * //

dimensions      [0 0 0 2 0 0 0];

internalField   nonuniform List<scalar> 
60000
(
3.22087
3.67536
4.24334
4.52406
4.19398
3.73757
3.62879
3.56692
3.2872
3.00907
2.94797
3.08927
3.27087
3.32214
3.30333
3.34875
3.32564
3.07721
2.61634
2.16611
1.82798
1.59536
1.46102
1.34817
1.20904
1.10405
1.09968
1.2458
1.60447
2.02241
2.0594
1.79657
1.63371
1.77462
2.3642
3.1875
3.36261
2.96556
2.81861
2.93904
9.92357
10.3236
10.4941
10.0024
8.89521
8.12803
8.21006
8.65586
8.88338
9.08857
9.64293
10.2943
10.5963
10.2824
9.69785
9.55734
9.97707
10.5589
10.7054
10.4713
10.2005
9.89663
9.71841
9.68607
9.52118
9.26592
9.4028
10.4748
12.2361
13.2415
12.4678
10.914
9.88762
9.99709
11.3663
12.5868
11.7591
9.96738
9.21549
9.45557
3.27041
3.39428
3.25219
2.74976
2.13492
1.78246
1.77481
1.94697
2.17552
2.5442
3.1226
3.64543
3.73823
3.33705
2.79515
2.53678
2.7816
3.47369
4.28438
4.71023
4.79797
4.84466
5.0347
5.37956
5.68238
5.92304
6.36624
7.3078
8.38274
8.51975
7.48617
6.22711
5.41893
5.211
5.52596
5.51838
4.53347
3.4259
2.94774
3.03526
0.173758
0.197871
0.192294
0.14452
0.0849065
0.0516849
0.0491018
0.0657715
0.0807556
0.102041
0.149859
0.200788
0.200256
0.139139
0.0762449
0.0477554
0.0631449
0.156415
0.371866
0.545191
0.477684
0.341395
0.262068
0.228618
0.221328
0.230824
0.273098
0.444992
0.805427
1.04677
0.899105
0.603451
0.399628
0.330815
0.398528
0.472699
0.360992
0.197828
0.13318
0.142149
0.00145782
0.0013768
0.000807904
0.000607638
0.00123326
0.00229313
0.00169047
0.000111243
0.00030272
0.000979425
0.00320936
0.00466336
0.00127962
0.0054568
0.0163098
0.0195579
0.0096049
0.000584063
0.0486737
0.1469
0.104703
0.0128278
0.0135767
0.0388369
0.03087
0.0110355
0.00378826
0.00012873
0.0229045
0.0856705
0.0756515
0.0246496
0.0027499
0.00124002
0.000463718
0.00926122
0.00915091
0.00104063
0.000238917
0.000280111
0.000214423
0.000270606
0.00092366
0.00155703
0.00194461
0.00263731
0.00266288
0.00137602
0.000347088
0.000102065
2.34249e-05
0.000400005
0.000191836
0.00546709
0.0147089
0.0163583
0.0119387
0.00360807
0.00983229
0.0795495
0.0783642
0.00486348
0.0371378
0.0787216
0.045884
0.00953302
0.00108448
0.00204923
0.00056605
0.00799855
0.0174242
0.00443238
0.000962001
0.00679819
0.00604077
0.000520099
3.37538e-05
0.000944045
0.00283965
0.00140367
0.000197285
0.000106603
0.000237842
0.000349202
0.000340261
0.00047079
0.000726395
0.000550009
0.000222633
7.58775e-05
4.55254e-06
8.13019e-05
3.33885e-05
0.000647546
0.00288267
0.00341727
0.00346583
0.00395654
0.000810786
0.0368287
0.0593701
0.00547213
0.0276747
0.0493477
0.016941
0.00215243
3.09884e-05
1.69764e-05
0.000426134
0.000108874
0.00155485
0.00231475
0.000161706
0.000971557
0.0020795
0.000905726
8.81673e-05
0.000215158
0.00079726
0.000658356
4.87826e-05
3.05142e-05
3.4141e-05
3.98956e-05
1.70676e-05
1.42124e-05
4.37163e-05
7.05949e-05
3.91406e-05
1.1795e-05
1.08183e-06
3.46122e-05
1.68813e-05
6.97781e-05
0.0004133
0.000350176
0.000257544
0.00163567
0.000959446
0.0104047
0.0320352
0.0036047
0.013861
0.0179054
0.00396395
0.000355424
5.70424e-05
2.50526e-06
9.24761e-06
2.56439e-05
8.50707e-06
0.000121286
0.000207098
1.64802e-05
0.000104336
0.000168774
5.92997e-05
3.06901e-05
6.82033e-05
8.88687e-05
3.27812e-06
3.04076e-06
3.16467e-06
3.24313e-06
4.54099e-07
2.29039e-08
8.83005e-08
1.33302e-06
4.38993e-06
4.68595e-07
1.48667e-06
1.63381e-05
9.3968e-06
1.74284e-05
8.8394e-05
4.14166e-05
1.07334e-06
0.000232777
0.00104228
0.00131087
0.0107291
0.00144422
0.00456224
0.00476558
0.000924641
6.42838e-05
2.05021e-06
1.15594e-06
4.42623e-07
5.10259e-07
1.24403e-06
6.60717e-07
2.95354e-06
1.32477e-05
1.61773e-06
5.88681e-06
9.10811e-06
3.61232e-06
3.09413e-06
6.67609e-06
7.98417e-07
5.65552e-07
2.67323e-07
2.57287e-07
8.86744e-07
1.88203e-09
2.8337e-10
3.99807e-09
7.34764e-07
9.22937e-07
3.23409e-07
5.63667e-06
1.69833e-06
2.73118e-06
1.73582e-05
7.68754e-06
4.80039e-06
3.86337e-06
0.000236378
5.60733e-05
0.00200573
0.000424975
0.00101728
0.000994311
0.000168088
1.01403e-05
1.19954e-06
2.07471e-09
8.43982e-07
1.11524e-08
5.36995e-09
1.81977e-08
8.52155e-07
1.54745e-07
6.01918e-07
1.99214e-08
4.8573e-07
2.75199e-07
8.60267e-07
8.54776e-07
2.59636e-10
6.70789e-09
1.0433e-08
3.25896e-09
1.17155e-10
1.19438e-11
3.53706e-10
1.12675e-09
1.92156e-09
1.17975e-08
1.51183e-08
3.04241e-07
4.28534e-07
3.19636e-07
4.26571e-06
2.2292e-06
2.93246e-07
1.64062e-06
9.97618e-06
8.99825e-06
0.0001855
8.08188e-05
0.000131506
0.000143274
1.78082e-05
4.8489e-07
8.97537e-07
1.19744e-09
1.02134e-10
4.07993e-11
2.31963e-11
2.50441e-11
4.44474e-11
5.58592e-11
3.72338e-11
1.65181e-11
5.24255e-11
9.83799e-10
6.14795e-10
4.30697e-10
7.88527e-11
1.89095e-10
1.59597e-10
1.58131e-11
2.41816e-13
1.34845e-15
1.30184e-14
2.45951e-13
2.11991e-11
6.14395e-10
1.82388e-09
8.06489e-07
7.83783e-09
7.28507e-07
8.53267e-07
9.09814e-07
2.47818e-09
8.40652e-08
3.53114e-07
5.99716e-07
8.1391e-06
1.0118e-05
7.97814e-06
1.09245e-05
2.40602e-06
9.95968e-07
9.26641e-10
8.89605e-13
1.86951e-14
5.55167e-15
1.75736e-15
1.83877e-15
1.4469e-15
3.76022e-15
6.11268e-16
1.0086e-15
2.31344e-14
3.9556e-12
2.84607e-13
6.21237e-13
7.00195e-15
7.65566e-14
1.14587e-13
1.00695e-14
1.08494e-16
4.98283e-19
5.49567e-20
7.71895e-17
3.48093e-14
5.89975e-12
7.22324e-10
1.1388e-09
1.52259e-09
3.2841e-09
1.46516e-09
4.67415e-11
3.48377e-10
9.32683e-10
5.8486e-09
8.87087e-07
3.8632e-07
1.10121e-06
4.18516e-07
2.81344e-07
9.51624e-07
1.26701e-09
1.45011e-12
1.90153e-15
3.62988e-18
2.3609e-19
2.93723e-20
4.66296e-20
2.22825e-20
1.07482e-19
3.8893e-21
6.99516e-21
5.7828e-19
6.30419e-17
7.10223e-17
4.25199e-16
2.05648e-20
9.28227e-18
2.73027e-17
2.12242e-18
2.08805e-20
8.86199e-23
1.11612e-23
3.40084e-21
4.36363e-19
6.91766e-18
9.36228e-15
3.81264e-12
3.48087e-11
3.92035e-11
1.1959e-12
1.14137e-14
2.65466e-15
1.34261e-12
2.53194e-11
1.2892e-10
5.6047e-11
3.85476e-11
7.6438e-10
3.19381e-10
1.18576e-11
1.43159e-14
6.94516e-18
2.41463e-20
9.27144e-23
2.41899e-24
1.46825e-25
5.18797e-25
1.20199e-25
1.90845e-24
2.14549e-26
1.19424e-25
1.64609e-24
1.69254e-22
5.63537e-21
5.1654e-20
1.6707e-23
2.73328e-22
2.07772e-21
1.60669e-22
1.64583e-24
1.11152e-26
7.75482e-28
2.2489e-26
4.49598e-24
3.22864e-22
6.81672e-20
5.43079e-17
3.21035e-15
1.05983e-14
4.31351e-16
4.25482e-18
1.86484e-19
3.96193e-18
1.70826e-15
8.78699e-15
1.90284e-15
3.23588e-16
2.75402e-14
2.01554e-14
2.71782e-16
8.04943e-19
1.7284e-21
4.1571e-24
1.75776e-26
2.06795e-27
2.06795e-27
5.68686e-27
5.16988e-28
3.10193e-27
3.8774e-27
3.36042e-27
5.94535e-27
0
2.2308e-25
1.07612e-24
2.06795e-27
3.36042e-27
2.89513e-26
3.36042e-27
1.80946e-27
1.80946e-27
7.75481e-28
2.06795e-27
2.06795e-27
7.75481e-28
2.79173e-25
3.7031e-22
7.92557e-20
1.44396e-18
1.05542e-19
1.3836e-21
1.43081e-23
9.4456e-23
3.65903e-20
2.5903e-19
3.17958e-20
1.44677e-21
5.35701e-19
8.82226e-19
1.67163e-20
9.36605e-23
2.9003e-25
2.06795e-27
9.8227e-27
1.08568e-26
4.3944e-27
7.75482e-28
7.75482e-28
5.1699e-28
3.87741e-27
1.29247e-27
5.16988e-28
2.06795e-27
7.75481e-28
5.16988e-28
5.16988e-28
1.80946e-27
7.75481e-28
1.80946e-27
1.29247e-27
1.80946e-27
3.10193e-27
6.97937e-27
1.80946e-27
1.80946e-27
3.10192e-27
5.68686e-27
5.03547e-25
1.30552e-22
1.81313e-23
3.23117e-25
2.06795e-27
3.10193e-27
4.66064e-25
3.51215e-24
2.04727e-25
7.83237e-26
1.23875e-23
4.43015e-23
1.34598e-24
2.37815e-26
1.80946e-27
3.8774e-27
7.75482e-28
5.16988e-28
1.29247e-27
7.75482e-28
4.39441e-27
4.65292e-27
5.16988e-28
5.16988e-28
1.80946e-27
3.10193e-27
5.94536e-27
2.06795e-27
3.36042e-27
3.10193e-27
2.06795e-27
1.29247e-27
5.16987e-27
1.29247e-27
1.10131e-40
3.36042e-27
5.16988e-28
0
2.06795e-27
2.06795e-27
7.75482e-28
1.62851e-26
2.06795e-27
5.16988e-28
7.23778e-27
2.06795e-27
3.10193e-27
5.16988e-28
7.75481e-28
3.10193e-27
7.75482e-28
1.80946e-27
5.16988e-28
7.75482e-28
0
1.29247e-27
5.16988e-28
5.16987e-28
3.36042e-27
3.36042e-27
1.80946e-27
5.16987e-28
0
7.75481e-28
5.16988e-28
5.16988e-28
2.06795e-27
1.80946e-27
7.75482e-28
2.06795e-27
2.06795e-27
7.75482e-28
5.16988e-28
7.75482e-28
1.29247e-27
5.16988e-28
7.75481e-28
7.75481e-28
5.16988e-28
5.16988e-28
5.16987e-28
3.10193e-27
7.75482e-28
5.16988e-28
3.10193e-27
1.29247e-27
5.16987e-28
1.29247e-27
3.10192e-27
1.29247e-27
1.10131e-40
7.75482e-28
1.80946e-27
1.29247e-27
1.80947e-27
3.36042e-27
1.29247e-27
7.75482e-28
3.36042e-27
1.80946e-27
7.75482e-28
1.29247e-27
3.87741e-27
4.3944e-27
3.36044e-27
5.16987e-28
2.06795e-27
7.75482e-28
1.29247e-27
5.16987e-28
2.06795e-27
1.29247e-27
5.68686e-27
1.80946e-27
7.75481e-28
7.23782e-27
0
5.16988e-28
3.10193e-27
3.36044e-27
5.16988e-28
3.10193e-27
2.06795e-27
1.29247e-27
0
0
5.16987e-28
7.75481e-28
1.29247e-27
5.16988e-28
7.75482e-28
5.16988e-28
7.75482e-28
1.29247e-27
5.16988e-28
7.75482e-28
1.10131e-40
1.29247e-27
7.75482e-28
0
0
5.16988e-28
2.06795e-27
7.75481e-28
7.75482e-28
5.16988e-28
7.75482e-28
2.06795e-27
7.75481e-28
5.94539e-27
5.16987e-28
5.94536e-27
5.16988e-28
1.80947e-27
2.06795e-27
4.3944e-27
1.10131e-40
3.36042e-27
3.36042e-27
1.80946e-27
7.75481e-28
1.10131e-40
7.75482e-28
3.10193e-27
1.29247e-27
2.06795e-27
5.16987e-28
2.06795e-27
0
7.75482e-28
2.06796e-27
3.10192e-27
1.80946e-27
2.06795e-27
3.10193e-27
5.16988e-28
2.06795e-27
5.16985e-27
1.29247e-27
7.75482e-28
7.75481e-28
5.16987e-28
3.87741e-27
3.10193e-27
3.36042e-27
1.29247e-27
7.75482e-28
5.68682e-27
7.75482e-28
5.16988e-28
7.75481e-28
5.16987e-28
1.29247e-27
1.29247e-27
2.06795e-27
1.80946e-27
5.16987e-28
2.06796e-27
1.29247e-27
7.75481e-28
7.75482e-28
5.16988e-28
4.65289e-27
1.29247e-27
1.29247e-27
5.16987e-28
1.80946e-27
1.29247e-27
2.06795e-27
5.94537e-27
5.16988e-28
3.10193e-27
3.36042e-27
5.16989e-28
5.16988e-28
5.16988e-28
1.80946e-27
1.80946e-27
0
7.75481e-28
7.75481e-28
1.10131e-40
5.16988e-27
1.29247e-27
2.06795e-27
2.06795e-27
1.80946e-27
5.16988e-28
1.29247e-27
5.16988e-28
4.3944e-27
0
7.75482e-28
5.16988e-28
2.06795e-27
7.75482e-28
0
1.80946e-27
2.06795e-27
8.53029e-27
2.06795e-27
2.58494e-27
5.16987e-28
5.68686e-27
1.80946e-27
1.10131e-40
2.06795e-27
7.75481e-28
5.16988e-28
1.29247e-27
7.75482e-28
1.29247e-27
7.75481e-28
1.29247e-27
1.10131e-40
7.75481e-28
7.75482e-28
7.75482e-28
7.75482e-28
1.29247e-27
3.87741e-27
5.16988e-28
5.16988e-28
4.65289e-27
7.75486e-28
0
5.16988e-28
1.29247e-27
1.29247e-27
1.80946e-27
2.06795e-27
5.16988e-28
7.75482e-28
7.75482e-28
1.80946e-27
1.80947e-27
1.80946e-27
0
0
1.80946e-27
5.16988e-28
7.75482e-28
5.16988e-28
5.94536e-27
2.06795e-27
1.10131e-40
5.16988e-28
5.16988e-28
3.87741e-27
4.39439e-27
1.80946e-27
7.75482e-28
5.16988e-28
5.16988e-28
7.75482e-28
2.06795e-27
7.75482e-28
1.80946e-27
5.16988e-28
7.75482e-28
4.3944e-27
1.29247e-27
7.75481e-28
7.75481e-28
2.06795e-27
5.16987e-28
7.75481e-28
5.16987e-28
1.80946e-27
1.29247e-27
7.75482e-28
1.29247e-27
7.75481e-28
5.16988e-28
4.65289e-27
5.16988e-28
7.75481e-28
3.87738e-27
5.16988e-28
0
7.75481e-28
1.29247e-27
7.75482e-28
5.16988e-28
1.29247e-27
1.29247e-27
1.80946e-27
5.16988e-28
3.36042e-27
4.65292e-27
2.06796e-27
1.80946e-27
5.68686e-27
0
7.75482e-28
2.06795e-27
7.75482e-28
5.16987e-28
7.75482e-28
3.36042e-27
2.06795e-27
5.16989e-27
3.36044e-27
2.58494e-27
1.80946e-27
5.16988e-28
0
7.75482e-28
3.84813
3.77437
3.64787
3.34856
3.03063
2.9155
3.01883
3.1592
3.08172
2.83892
2.63632
2.45441
2.24201
2.02485
1.84233
1.70012
1.59847
1.56865
1.65836
1.85644
1.96081
1.78756
1.56474
1.48431
1.4457
1.40706
1.42181
1.50111
1.54777
1.45415
1.29374
1.20178
1.20288
1.37755
2.18104
4.2357
5.51053
4.39772
3.95149
3.9341
7.91074
8.23154
8.28165
8.12058
8.11647
8.46835
9.10883
9.56575
9.43177
9.05987
8.96927
9.14885
9.29235
9.29423
9.28584
9.33917
9.43759
9.66483
10.3291
11.4567
12.153
11.5329
10.3393
9.76117
9.84317
10.1782
10.6947
11.3016
11.555
11.0971
10.3294
9.92844
9.88339
10.2419
12.1771
14.8373
13.6988
10.0148
7.90673
7.61335
1.4882
1.70663
1.83436
1.83621
1.86241
2.03941
2.39212
2.67804
2.70364
2.62009
2.63688
2.81055
3.00358
3.13498
3.30539
3.6212
4.01063
4.41205
5.05157
6.07393
6.78576
6.33866
5.34584
4.93081
5.37028
6.21644
7.13733
7.88756
8.11587
7.69615
7.06515
6.80001
6.79284
6.69263
6.82581
6.45885
4.57813
2.57422
1.63752
1.37675
0.0369646
0.0435767
0.0465027
0.0383413
0.0296288
0.0331867
0.06236
0.113437
0.13906
0.124412
0.102809
0.0915008
0.0837528
0.0761352
0.0773932
0.0978851
0.130255
0.153266
0.21581
0.446539
0.751877
0.694499
0.390891
0.228256
0.238381
0.365148
0.578951
0.818907
0.936451
0.832526
0.62792
0.512648
0.493536
0.498433
0.593177
0.651071
0.418714
0.148101
0.0572018
0.0386116
0.000558607
0.00214204
0.00574669
0.00962276
0.0100047
0.00600378
0.000579535
0.00295008
0.00941026
0.00439847
0.000465376
0.00275903
0.00699948
0.00974028
0.00844968
0.00369815
0.000553816
0.000597804
0.000628
0.0118518
0.0933919
0.0956778
0.012805
0.00905158
0.0158282
0.00305108
0.00315188
0.0269495
0.048549
0.0364749
0.0114943
0.00260648
0.00176606
0.00126862
0.00579127
0.0262397
0.0193379
0.00134123
0.00135597
0.000627501
0.000869256
0.00183272
0.00569164
0.00904331
0.00782741
0.0044958
0.00149974
8.11959e-05
0.00278821
0.00175683
0.000524177
0.00540573
0.00989703
0.0111213
0.00912126
0.00496941
0.000816278
0.000210111
0.00317113
0.000885003
0.020932
0.040899
0.00300008
0.0174626
0.0295135
0.0130355
0.00141423
0.000641334
0.00391604
0.00414086
0.000705847
0.000235085
0.000506987
0.00132986
0.00117742
0.00101108
0.00280956
0.000324759
0.00357304
0.00230391
0.000509359
0.000511829
0.00166839
0.00287459
0.00212539
0.000993906
0.000402092
1.83397e-05
0.000624659
0.00124981
4.8134e-05
0.00183163
0.00422225
0.00461039
0.00348653
0.00179761
0.000180392
0.000119598
0.000522589
0.00264125
0.00239526
0.0183949
0.00295021
0.00707508
0.0120318
0.00362802
0.000243038
2.25533e-05
9.01034e-05
0.000178262
0.000158173
2.27238e-05
2.83164e-05
1.10355e-05
0.000563333
1.86513e-05
0.00124672
5.52093e-05
0.00132458
0.00138511
0.000174119
0.000132237
0.000330219
0.00054993
0.00035062
0.00012192
5.65005e-05
2.34845e-05
5.00006e-05
0.000383282
0.000132048
0.000221723
0.00114129
0.00146335
0.000996326
0.000449115
5.33866e-05
0.00010668
2.20295e-05
0.0010812
0.000156961
0.00567718
0.00161686
0.00200621
0.0029397
0.000621968
3.83314e-05
1.03311e-06
1.80216e-06
1.44379e-07
5.09462e-07
5.71017e-08
2.63946e-06
4.44811e-05
2.0381e-05
5.56374e-05
0.000200483
0.000153289
0.000124928
0.000334514
3.47845e-05
2.77878e-05
5.75248e-05
7.35818e-05
4.10508e-05
1.14894e-05
6.76558e-06
6.90243e-06
1.01509e-06
6.3276e-05
6.23373e-05
1.00797e-05
0.000218575
0.000347067
0.000217286
9.29509e-05
2.29203e-05
2.50515e-05
1.48607e-05
0.000212453
4.06173e-05
0.00135769
0.000481506
0.000497731
0.000640037
9.99199e-05
6.60895e-06
1.06017e-06
7.47992e-08
1.01114e-09
3.6598e-10
2.33634e-07
3.54031e-07
1.19938e-06
1.31163e-06
1.00435e-05
4.5606e-06
4.20134e-05
1.01131e-06
3.66631e-05
3.70829e-06
5.58389e-06
1.09444e-05
7.51143e-06
4.01384e-06
4.39574e-07
1.0582e-07
1.59466e-06
7.41061e-07
5.00954e-06
1.40766e-05
5.32518e-07
3.33333e-05
5.48932e-05
2.66123e-05
1.04094e-05
4.40641e-06
2.65814e-06
9.21073e-06
2.62369e-05
1.58164e-05
0.000242861
9.44801e-05
0.000112465
0.000112245
1.64538e-05
2.28613e-06
9.36606e-07
1.84257e-09
5.73465e-12
3.52131e-10
2.60507e-09
1.16628e-08
3.23659e-09
2.62657e-07
2.23475e-07
1.75788e-07
3.74485e-06
7.62207e-07
1.18952e-06
7.31553e-07
2.78951e-07
3.10986e-07
3.37854e-07
3.15393e-07
9.41349e-09
2.19996e-10
1.30277e-08
8.80239e-07
3.99809e-07
1.06904e-06
2.81739e-07
3.57815e-06
3.48313e-06
2.26617e-06
9.40462e-07
8.33045e-07
2.68958e-08
3.23244e-07
1.02898e-06
4.01439e-06
2.9515e-05
1.42125e-05
1.66733e-05
1.43325e-05
2.09952e-06
9.6624e-07
1.70213e-09
2.45831e-11
2.52533e-13
3.23138e-13
8.29871e-12
6.44467e-11
2.93875e-10
3.8221e-09
4.54463e-09
8.49139e-07
1.20791e-07
8.64182e-07
5.49405e-09
3.34866e-09
7.45761e-07
9.01447e-07
1.19231e-08
1.8971e-09
1.22717e-10
8.48844e-12
2.74743e-10
1.57137e-09
9.42318e-10
9.60891e-08
1.69493e-09
1.14488e-07
5.57541e-07
9.46704e-07
1.85625e-09
2.51792e-09
1.3291e-09
7.97996e-07
1.24275e-07
2.77374e-08
2.48854e-06
9.70961e-07
1.33411e-06
2.05816e-06
9.8593e-07
1.84834e-09
5.09026e-12
1.15091e-14
6.59517e-18
6.97625e-17
1.70691e-15
1.9058e-14
8.34887e-14
7.78552e-13
7.02339e-12
1.36676e-12
1.02122e-11
7.91466e-10
4.4683e-09
3.10297e-10
4.24114e-10
6.05571e-10
7.97619e-11
1.20306e-12
1.62329e-14
3.60636e-15
1.8287e-13
5.48342e-12
3.86586e-12
4.14023e-13
1.46009e-10
1.28557e-09
5.83613e-10
4.24582e-11
1.58024e-12
3.64849e-13
2.29111e-11
2.70755e-10
1.08789e-10
3.41027e-09
7.76785e-07
8.14259e-09
1.26668e-07
8.62523e-07
1.97063e-09
5.40402e-12
1.2967e-14
2.88761e-17
6.61455e-20
8.97178e-21
1.23907e-19
2.79625e-18
1.01511e-17
5.05119e-17
1.45279e-16
4.15354e-18
9.99262e-16
4.54497e-13
1.44635e-11
3.97898e-14
1.61655e-13
3.19612e-13
2.92062e-14
2.63465e-16
9.05708e-19
3.64384e-19
2.88062e-17
6.85937e-16
3.04306e-16
1.96076e-17
3.28765e-15
2.66226e-13
1.60933e-13
3.16173e-15
4.69184e-17
5.79399e-17
6.48361e-15
7.83517e-14
3.69259e-13
2.72984e-11
1.14054e-11
2.4022e-10
9.47552e-10
9.59741e-11
6.01964e-13
1.55179e-15
2.72594e-18
4.03724e-21
4.79946e-24
2.46344e-25
3.92186e-24
2.52677e-22
7.57403e-22
1.90707e-21
1.3025e-21
1.28296e-21
2.56668e-19
3.34982e-17
6.35474e-16
1.44808e-18
1.61024e-17
5.14525e-17
3.20373e-18
1.84709e-20
2.59063e-23
3.1109e-23
1.63619e-21
2.73993e-20
1.21408e-20
5.50419e-22
9.78936e-21
2.37433e-17
2.682e-17
4.90106e-19
3.59293e-21
2.13244e-21
4.76913e-19
9.14231e-18
1.045e-16
3.28949e-15
5.45816e-17
1.42825e-14
1.95825e-13
1.23179e-14
9.1217e-17
2.81644e-19
6.31961e-22
1.30591e-24
2.58494e-27
3.10192e-27
1.80946e-27
1.75776e-26
2.66249e-26
4.73044e-26
1.60267e-26
5.48007e-26
1.41221e-23
1.27121e-21
1.34446e-20
2.52285e-23
4.58466e-22
2.73792e-21
1.00384e-22
3.07608e-25
2.06795e-27
0
4.1876e-26
3.76884e-25
1.93353e-25
5.16988e-28
4.60843e-24
1.34877e-21
3.4695e-21
9.07241e-23
6.65106e-25
3.36042e-27
3.53438e-24
2.46673e-22
4.72195e-21
6.53743e-20
7.04261e-22
3.42106e-19
1.87086e-17
1.37195e-18
1.37268e-20
5.75335e-23
1.24852e-25
2.06795e-27
7.75482e-28
5.16987e-28
1.80946e-27
5.16988e-28
7.75482e-28
5.16988e-28
3.36044e-27
1.29247e-27
5.94536e-27
6.90179e-26
5.13628e-25
7.75482e-28
3.10193e-27
6.90181e-26
2.58494e-27
7.75482e-28
5.16987e-28
2.06795e-27
7.75482e-28
5.16988e-28
5.16987e-28
3.10194e-27
7.75482e-28
8.19426e-26
3.63701e-25
1.86115e-26
2.06795e-27
7.75481e-28
7.75482e-28
7.75482e-28
1.60266e-26
1.202e-25
3.95496e-26
3.96996e-24
1.39074e-21
1.31895e-22
1.63316e-24
1.11153e-26
7.75482e-28
5.16989e-28
7.75482e-28
3.36042e-27
5.16988e-28
0
1.29247e-27
7.75481e-28
2.06795e-27
2.06796e-27
1.29247e-27
3.10194e-27
2.06795e-27
3.36044e-27
7.75481e-28
7.75481e-28
0
2.06795e-27
1.80946e-27
3.36044e-27
3.36042e-27
5.68686e-27
7.23778e-27
2.06795e-27
3.10194e-27
1.80946e-27
7.75481e-28
2.06796e-27
2.06795e-27
1.80946e-27
2.06795e-27
1.29247e-27
5.16988e-28
1.10131e-40
5.16987e-28
5.16988e-28
7.80655e-26
1.47341e-26
5.16988e-28
1.80946e-27
7.75481e-28
7.75482e-28
1.80946e-27
0
0
7.75481e-28
7.75481e-28
7.75482e-28
5.16986e-27
2.06795e-27
7.75482e-28
5.16988e-28
5.16988e-28
1.80946e-27
1.10131e-40
0
7.75481e-28
1.80946e-27
5.16988e-28
5.16988e-28
2.06795e-27
1.29247e-27
5.16988e-28
2.06795e-27
5.16988e-28
1.80946e-27
7.75482e-28
3.8774e-27
0
5.16988e-28
3.10193e-27
3.10193e-27
5.16988e-28
5.16987e-28
7.75482e-28
7.75481e-28
5.16988e-28
5.16988e-28
7.75482e-28
1.29247e-27
2.06795e-27
1.29247e-27
0
2.06796e-27
2.06795e-27
1.80946e-27
3.36042e-27
7.75481e-28
1.10131e-40
5.16988e-28
1.29247e-27
0
0
1.29247e-27
1.29247e-27
1.80946e-27
7.75482e-28
5.16988e-28
7.75481e-28
0
7.75481e-28
5.16987e-28
0
1.29247e-27
0
5.16987e-28
5.16987e-28
5.16988e-28
7.75481e-28
2.06795e-27
5.16987e-28
2.06795e-27
1.10131e-40
7.75482e-28
3.10193e-27
1.80946e-27
5.16987e-28
7.75481e-28
5.16988e-28
5.16988e-28
1.29247e-27
1.29247e-27
1.29247e-27
2.06795e-27
0
1.29247e-27
1.80946e-27
3.10191e-27
0
5.16988e-28
0
5.16987e-28
5.16988e-28
1.29247e-27
3.36042e-27
4.65289e-27
1.55096e-26
1.29247e-27
5.68683e-27
3.36044e-27
1.80946e-27
2.06796e-27
4.65289e-27
5.16988e-28
1.80946e-27
2.06795e-27
5.16987e-28
2.06796e-27
3.10192e-27
2.58494e-27
1.29247e-27
4.65289e-27
1.10131e-40
5.16988e-28
1.10131e-40
2.06796e-27
1.80947e-27
3.10192e-27
1.10131e-40
1.29247e-27
9.04732e-27
5.16988e-28
1.80946e-27
7.75482e-28
5.16988e-28
5.16988e-28
3.10194e-27
2.06795e-27
7.75482e-28
5.16988e-28
2.06795e-27
2.58494e-27
2.06795e-27
4.3944e-27
7.75482e-28
3.10193e-27
7.75482e-28
3.36042e-27
1.80946e-27
1.29247e-27
5.16987e-28
7.75482e-28
7.75482e-28
1.80946e-27
3.10193e-27
7.75482e-28
3.10192e-27
4.65289e-27
3.10193e-27
0
1.29247e-27
3.8774e-27
3.10193e-27
1.80946e-27
1.10131e-40
7.75481e-28
5.16988e-28
1.29247e-27
3.87741e-27
3.10193e-27
4.65292e-27
2.06795e-27
1.29247e-27
3.36042e-27
5.68683e-27
2.06795e-27
4.39441e-27
7.75481e-28
2.06795e-27
7.75482e-28
1.80946e-27
5.1699e-28
5.16988e-28
1.80946e-27
7.75482e-28
5.16987e-27
1.80947e-27
1.29247e-27
1.29247e-27
2.06796e-27
4.39439e-27
1.80946e-27
0
7.75481e-28
2.06795e-27
1.29247e-27
7.75481e-28
7.75481e-28
2.06795e-27
5.16988e-28
5.16988e-28
7.75481e-28
7.75482e-28
7.75482e-28
5.68682e-27
1.29247e-27
5.68682e-27
7.75481e-28
2.06795e-27
1.80946e-27
1.29248e-27
5.16988e-28
5.16988e-28
1.10131e-40
5.16988e-28
5.68687e-27
7.75482e-28
1.29247e-27
5.16988e-28
5.16988e-28
3.36042e-27
5.16987e-28
7.75482e-28
5.16988e-28
1.80946e-27
7.75482e-28
3.10193e-27
2.06795e-27
2.06795e-27
7.75482e-28
1.29247e-27
1.80946e-27
2.06795e-27
7.75481e-28
2.06795e-27
7.75481e-28
1.29247e-27
5.16989e-28
1.80946e-27
1.29247e-27
3.10193e-27
1.29247e-27
7.75481e-28
3.36042e-27
5.16988e-28
5.16988e-28
3.10193e-27
3.36042e-27
2.06795e-27
5.16988e-28
2.06795e-27
1.29247e-27
1.29247e-27
5.16988e-28
7.75482e-28
7.75482e-28
2.06795e-27
3.10193e-27
0
5.16988e-28
1.80946e-27
3.36042e-27
5.16988e-28
1.29247e-27
1.29247e-27
1.29247e-27
7.75482e-28
3.87738e-27
7.75481e-28
3.10192e-27
3.36042e-27
1.10131e-40
5.16988e-28
3.10193e-27
7.75482e-28
5.68686e-27
5.16987e-28
5.16988e-28
5.16988e-28
3.8774e-27
7.75482e-28
1.29247e-27
1.80946e-27
1.29247e-27
7.75482e-28
1.29247e-27
5.16988e-28
0
5.16988e-28
1.80946e-27
1.29247e-27
1.80946e-27
5.16987e-28
7.75482e-28
3.87741e-27
1.80946e-27
1.80946e-27
1.29247e-27
3.10194e-27
5.16988e-28
5.16987e-28
2.06795e-27
4.65289e-27
3.56786
3.69512
3.56796
3.20818
2.88715
2.72017
2.67044
2.68309
2.69196
2.58114
2.32398
2.02194
1.7644
1.57254
1.44183
1.34457
1.2764
1.25974
1.33079
1.55088
2.01624
2.49391
2.48843
2.31748
2.29926
2.28292
2.19665
2.00397
1.7127
1.44192
1.30551
1.32714
1.48931
1.83163
2.49496
3.55056
4.34069
4.22692
3.7748
3.53007
8.37936
8.73059
8.92285
8.96111
9.08529
9.3658
9.6918
9.85864
9.94449
9.90145
9.70569
9.46531
9.31768
9.30429
9.39407
9.47588
9.55289
9.80051
10.4265
11.4585
12.7215
13.3631
12.3931
10.8386
10.3641
10.7045
11.1198
11.1465
10.7093
10.1717
10.0268
10.4258
11.1109
11.7745
12.5236
13.1689
12.5841
10.9365
9.2492
8.35449
1.8003
2.02156
2.24254
2.39639
2.60107
2.90913
3.2069
3.45138
3.65696
3.78163
3.80902
3.80862
3.92051
4.19412
4.58347
4.98841
5.37452
5.79399
6.41191
7.18895
7.66739
7.31139
6.03461
4.72299
4.47734
5.19006
6.05993
6.53371
6.53654
6.38562
6.49252
6.92528
7.27766
7.13865
6.60201
5.66938
4.30783
3.02186
2.25085
1.84133
0.0787128
0.0695782
0.0714398
0.0704081
0.0747173
0.0913572
0.119885
0.156086
0.194969
0.223748
0.223327
0.197984
0.177656
0.176778
0.195467
0.226041
0.257714
0.276598
0.323247
0.509137
0.80574
0.888705
0.614839
0.32812
0.262276
0.384455
0.584603
0.694726
0.64572
0.526707
0.464588
0.514037
0.613551
0.657237
0.634103
0.522749
0.327676
0.162975
0.108814
0.103458
0.0048497
0.00145118
0.00892514
0.0126335
0.0109489
0.00685859
0.00283688
0.000623693
0.00029122
0.000721131
0.000741033
0.00122132
0.00353022
0.00540235
0.00502129
0.00291072
0.000785574
0.000370308
0.000398391
0.00449657
0.0635854
0.109401
0.0460666
0.00306014
0.00140476
0.000570117
0.00990742
0.0175684
0.0106237
0.00280464
0.000868751
0.00106484
0.00822051
0.0164083
0.0192173
0.0151431
0.00523534
0.000575798
0.000656439
0.00696414
0.00158714
0.00140614
0.0131188
0.0199629
0.0183785
0.0141466
0.0093508
0.00550677
0.00310511
0.00203418
0.00268654
0.00612027
0.0113258
0.0141262
0.0124924
0.00809102
0.00316183
0.00038152
0.000717062
0.00173625
0.00489116
0.0320326
0.0127745
0.00220016
0.0123099
0.00693534
0.000969507
0.000225136
0.0010257
0.00288268
0.00378706
0.00204918
0.000113175
0.000357741
0.000989904
0.00078643
0.000178083
0.00151089
0.00067004
0.000556549
0.000464107
0.000276955
0.00533598
0.00938388
0.00868704
0.00675147
0.00480404
0.00319876
0.0019917
0.00117229
0.000988832
0.00224227
0.004943
0.00663448
0.00524835
0.00259075
0.000900318
6.73311e-05
2.83805e-05
0.000427012
0.0002191
0.00493051
0.00592229
0.000306334
0.00509991
0.00421015
0.00116775
0.000340015
0.000371417
0.000404716
0.000254937
0.000121042
8.2737e-06
2.3399e-05
0.000136354
0.0003512
4.97019e-05
0.000442302
0.000470125
3.25964e-05
0.000109265
3.87978e-05
0.00124634
0.00258509
0.00246828
0.00190602
0.0014466
0.00104407
0.000637623
0.00033655
0.000188107
0.000299114
0.000812069
0.00131718
0.00104352
0.000415617
0.000133636
3.96836e-05
4.23483e-06
3.48372e-06
0.000114999
0.00025317
0.00138464
7.33086e-05
0.00095206
0.00106079
0.000368678
0.000101347
4.46364e-05
1.42319e-05
2.25267e-06
1.09379e-08
5.02175e-07
3.64671e-07
7.6246e-07
4.26922e-05
7.37319e-05
1.74137e-05
7.42107e-05
9.55378e-06
2.8091e-05
7.46389e-06
0.000228894
0.000488128
0.000461954
0.000348175
0.000283296
0.000213293
0.000120004
4.84088e-05
3.34017e-05
3.79616e-05
6.58137e-05
9.16429e-05
5.78772e-05
2.54382e-05
1.0067e-05
4.42162e-06
3.28273e-07
1.67486e-07
1.00512e-05
1.29434e-05
0.000193815
2.34102e-05
0.000139784
0.00018827
7.27907e-05
2.01783e-05
6.76838e-06
1.92969e-06
4.57807e-09
8.55027e-10
5.10097e-10
1.50855e-09
2.86875e-07
2.98043e-07
5.71556e-06
3.29616e-07
4.70141e-06
8.15536e-06
4.70673e-06
2.20017e-06
3.44538e-05
5.83386e-05
5.13572e-05
3.83367e-05
3.20009e-05
2.01926e-05
9.95832e-06
3.7822e-06
1.56507e-06
3.06033e-06
3.54768e-06
2.26313e-06
6.89637e-07
8.21179e-07
5.68541e-07
1.01671e-06
6.83664e-07
7.06655e-08
9.44076e-07
1.26802e-06
2.29818e-05
3.41674e-06
1.86418e-05
2.71814e-05
1.0896e-05
3.32341e-06
1.96587e-06
9.50914e-07
5.32735e-09
1.50199e-09
3.62945e-10
2.2084e-11
1.66937e-09
4.91238e-09
8.13297e-07
2.03548e-07
3.88705e-08
4.19006e-06
4.14975e-07
2.98405e-07
3.0145e-06
3.36615e-06
4.89823e-06
1.77225e-06
1.63921e-06
1.93301e-06
3.15332e-07
8.48527e-07
8.29852e-07
8.16343e-07
9.47131e-07
2.9743e-09
5.11714e-12
1.08196e-10
1.56933e-10
4.09592e-10
1.42683e-09
2.43799e-09
8.20533e-07
3.25333e-07
1.73449e-06
1.40983e-08
3.89843e-06
4.74107e-06
1.10266e-06
2.90388e-07
9.17064e-07
1.86192e-09
4.40376e-12
5.35413e-13
9.86694e-14
6.00813e-12
6.4776e-10
3.30784e-11
5.35241e-09
8.87209e-09
6.4304e-09
6.76494e-07
9.56243e-07
1.38537e-07
2.60562e-07
3.42621e-07
1.22913e-07
8.64334e-08
8.54279e-07
3.18252e-09
2.89092e-09
8.80152e-10
1.3348e-10
3.12271e-10
3.31396e-10
2.38832e-11
3.31734e-12
8.30894e-12
1.32667e-12
1.0494e-11
2.40001e-11
4.5645e-10
6.08538e-09
1.1865e-07
8.39719e-07
2.26155e-08
2.34799e-07
2.80076e-07
9.1622e-07
3.10159e-09
2.62361e-11
3.15234e-14
2.4379e-16
1.667e-16
1.0238e-17
6.15872e-15
2.97009e-13
3.05229e-12
1.43252e-13
1.79942e-11
1.8628e-09
7.56075e-07
5.34877e-10
3.85133e-09
1.05903e-08
2.28956e-09
5.38492e-10
2.44148e-10
2.46282e-11
3.65167e-12
3.30946e-13
9.56902e-15
1.44844e-15
3.26929e-14
1.56697e-13
1.2485e-14
3.13105e-17
2.01919e-16
1.58011e-16
8.32167e-15
1.96046e-14
1.01305e-13
2.85118e-12
3.15713e-10
1.85307e-09
3.47324e-10
5.99519e-09
2.24002e-09
7.47539e-11
5.94535e-13
1.92161e-15
2.81146e-18
4.88638e-21
4.08394e-20
2.54089e-22
2.61001e-18
5.21316e-17
1.60956e-16
7.22909e-17
2.04655e-14
4.707e-12
5.1163e-10
1.43833e-11
2.47315e-10
1.07486e-10
2.38857e-12
9.31652e-14
8.33452e-15
1.81606e-16
5.98869e-19
5.34482e-19
1.68878e-20
3.6684e-22
4.25301e-19
2.49645e-17
4.47275e-18
2.44153e-21
2.21173e-21
2.81028e-20
2.09382e-18
9.06441e-18
1.93846e-18
3.59165e-15
2.77077e-15
1.75568e-12
7.34545e-11
4.16476e-11
1.1587e-12
1.17987e-14
5.63431e-17
9.68666e-20
3.83225e-23
5.93244e-25
8.0849e-24
1.16322e-26
6.81892e-22
5.85821e-21
2.60917e-21
9.01578e-20
2.28975e-17
4.15323e-15
4.68966e-13
2.19564e-15
1.07086e-13
4.39945e-14
7.6883e-16
6.92612e-18
2.13111e-20
1.23474e-22
2.83516e-24
1.69883e-24
5.76442e-26
1.80946e-27
6.55284e-25
1.9921e-21
8.50263e-22
2.21581e-24
6.41067e-26
1.13608e-24
1.55953e-22
1.51631e-21
6.93755e-21
6.43805e-19
1.32605e-20
8.02642e-18
1.19919e-14
8.79847e-15
2.16659e-16
1.66212e-18
5.4824e-21
8.96507e-24
2.53324e-26
7.75482e-28
2.06795e-27
5.16988e-28
1.41396e-25
4.73561e-25
1.98265e-25
2.22556e-23
6.22032e-21
1.00073e-18
9.26918e-17
8.57632e-20
1.50002e-17
5.16624e-18
6.75012e-20
2.27805e-22
2.76071e-25
3.10193e-27
2.06795e-27
2.06795e-27
7.75482e-28
1.29247e-27
3.10193e-27
7.5739e-26
1.05466e-25
5.16988e-28
2.06795e-27
2.06795e-27
3.10192e-27
8.19426e-26
9.67544e-25
3.50898e-23
8.93665e-24
3.05586e-21
1.08425e-18
1.13308e-18
3.09796e-20
2.17963e-22
6.22453e-25
6.97934e-27
5.16988e-28
3.36042e-27
5.16988e-28
1.29247e-27
5.16988e-28
3.10193e-27
1.29247e-27
6.97933e-27
9.35746e-25
1.34041e-22
8.91104e-21
9.00334e-25
1.10763e-21
2.69911e-22
2.65214e-24
1.11153e-26
3.36042e-27
3.10193e-27
7.75482e-28
5.16988e-28
1.29247e-27
7.75481e-28
5.16987e-28