/*--------------------------------*- C++ -*----------------------------------*\
| =========                 |                                                 |
| \\      /  F ield         | OpenFOAM: The Open Source CFD Toolbox           |
|  \\    /   O peration     | Version:  5.0                                   |
|   \\  /    A nd           | Web:      www.OpenFOAM.org                      |
|    \\/     M anipulation  |                                                 |
\*---------------------------------------------------------------------------*/
FoamFile
{
    version     2.0;
    format      ascii;
    class       volScalarField;
    location    "50.4676134421789371";
    object      TPrime2Mean;
}
// * * * * * * * * * * * * * * * * * * * * * * * * * * * * * * * * * * * * * //

dimensions      [0 0 0 2 0 0 0];

internalField   nonuniform List<scalar> 
60000
(
63.8868
65.7384
66.3676
63.0209
56.7381
53.982
55.8017
57.2459
57.2426
57.9582
60.137
62.5486
63.4985
62.5136
61.2443
61.2902
62.1312
62.5323
61.297
59.0369
56.2131
53.9914
53.6325
54.6822
56.5716
58.8175
62.2771
68.1609
74.0296
73.585
66.2789
59.1662
56.6323
60.0251
68.4035
73.1136
66.8941
59.9275
59.2828
61.509
103.102
102.055
97.9398
89.1621
78.0285
72.3386
74.3458
79.3238
84.5717
91.9176
101.011
107.066
106.773
100.821
94.7344
95.1071
102.712
113.167
119.602
121.702
121.815
121.828
125.441
132.36
140.554
148.382
157.422
169.424
178.849
174.249
156.024
138.186
128.876
129.32
136.576
136.516
119.371
101.678
97.387
100.716
17.3455
17.6582
16.5464
13.7387
10.5634
8.88848
8.94998
9.81834
11.005
13.1656
16.4516
19.0457
18.8993
16.3138
13.5449
12.5688
14.2658
18.3196
22.7753
24.75
24.7592
24.7007
25.7519
27.5511
29.1462
30.8122
34.1852
40.3349
46.146
45.7393
39.2831
32.5828
28.7859
28.202
29.8157
28.6264
22.6149
17.0907
15.2255
16.1127
0.576709
0.618626
0.564883
0.392078
0.205245
0.119464
0.136019
0.211193
0.269858
0.35744
0.526963
0.654227
0.562349
0.320197
0.140653
0.0851238
0.175138
0.63222
1.65787
2.28382
1.74529
1.04096
0.663034
0.516564
0.511607
0.592917
0.836178
1.67005
3.22075
3.99933
3.15334
1.94567
1.22325
1.03816
1.37358
1.63974
1.15495
0.588936
0.415004
0.476804
0.00318221
0.000916591
0.00146638
0.00497216
0.0114592
0.017859
0.0118302
0.000973815
0.0007421
0.00375778
0.0134896
0.0128745
0.00209672
0.0509876
0.115037
0.118478
0.0494954
0.00689784
0.31998
0.778284
0.418848
0.0114277
0.13014
0.278367
0.192697
0.0665807
0.0228846
0.000148947
0.145375
0.42042
0.293932
0.0623876
0.00152241
0.0122057
0.00025391
0.0318039
0.0235899
0.000559518
0.00219934
0.000419969
0.00128162
0.00233378
0.00682657
0.00971037
0.0112637
0.0149157
0.0145
0.00689847
0.00171445
0.000454317
0.000183563
0.00142003
0.00197501
0.0388284
0.0849025
0.0856382
0.0595713
0.00995632
0.0821935
0.463426
0.339887
0.00239745
0.262392
0.434166
0.217478
0.0390361
0.00543925
0.0109405
0.000386352
0.0530779
0.0817431
0.0118563
0.00936431
0.0424692
0.031751
0.00238748
5.59161e-05
0.00700262
0.015902
0.00684692
0.000940034
0.000706904
0.00155399
0.00196163
0.00181166
0.00261421
0.00387785
0.00279371
0.00104526
0.000331583
2.2504e-06
0.000432284
1.82661e-05
0.00502001
0.0162913
0.0174972
0.0186712
0.0174909
0.00885251
0.232476
0.272181
0.00468393
0.186313
0.247749
0.0723058
0.00809555
2.40769e-05
9.47845e-06
0.00244019
6.23494e-05
0.00969363
0.0098207
9.8401e-05
0.00660159
0.0111045
0.00408629
0.00043977
0.00142341
0.0043752
0.00321163
0.000224685
0.000155909
0.000204605
0.000199391
7.57304e-05
6.76792e-05
0.000237971
0.000360482
0.000187732
4.63082e-05
1.16812e-05
0.000199469
3.32296e-05
0.000591295
0.00229228
0.00162726
0.00168008
0.00954306
0.00127277
0.0747581
0.151875
0.00377126
0.089179
0.0841142
0.0157884
0.00138591
0.000204966
2.42995e-05
2.24625e-05
0.000160605
5.64138e-06
0.000759325
0.000888896
8.88847e-06
0.000671095
0.0008527
0.000277707
0.000162145
0.000371147
0.000436928
1.88452e-05
1.77846e-05
1.89242e-05
1.47079e-05
2.48328e-06
1.33732e-08
9.48785e-08
8.17953e-06
1.68993e-05
2.45012e-06
1.33298e-05
9.51284e-05
2.64205e-05
0.000139132
0.000485187
0.000136194
9.62405e-07
0.00177845
0.00393927
0.0117766
0.0527375
0.00160005
0.0284541
0.0215338
0.00357103
0.000221625
9.98487e-06
5.37804e-06
3.12467e-06
1.31474e-06
7.74844e-06
1.66617e-06
2.50649e-05
5.85796e-05
1.71961e-06
3.64366e-05
4.45185e-05
1.98914e-05
1.77585e-05
2.89224e-05
1.72696e-06
2.13578e-06
1.59346e-06
7.99089e-07
1.51634e-06
5.28235e-09
3.7835e-10
4.49654e-09
1.38747e-06
1.72381e-06
2.64264e-06
3.07724e-05
6.75589e-06
2.4254e-05
9.95937e-05
2.60856e-05
3.06248e-05
3.8651e-05
0.00120824
0.000557423
0.0105571
0.000563668
0.00620532
0.00434777
0.000629666
3.71716e-05
2.0906e-06
2.22644e-09
1.45489e-06
1.54396e-08
1.70548e-08
3.03844e-08
1.48694e-06
1.37035e-07
2.19428e-06
2.51312e-08
1.86611e-06
1.71253e-06
1.85437e-06
1.50796e-06
1.16415e-09
2.44763e-08
3.72529e-08
1.11031e-08
4.51109e-10
4.36557e-11
1.19326e-09
3.09956e-09
7.34872e-09
3.07919e-08
2.17697e-08
2.57585e-06
1.11879e-06
2.35725e-06
1.63511e-05
6.95506e-06
1.78617e-06
4.18966e-06
7.11288e-05
4.13951e-06
0.00108226
0.000144046
0.000808638
0.00060287
6.95363e-05
2.53414e-06
1.50138e-06
3.20142e-09
7.27596e-11
1.16415e-10
7.27596e-11
7.27596e-11
2.91038e-11
1.45519e-10
4.36557e-11
-1.45519e-11
4.36557e-11
3.69619e-09
2.24099e-09
1.10595e-09
1.74623e-10
6.54836e-10
6.54836e-10
2.91038e-11
0
1.45519e-11
-2.91038e-11
1.45519e-11
5.82077e-11
1.71713e-09
1.35333e-09
1.51299e-06
1.92522e-08
1.53587e-06
1.67667e-06
1.53891e-06
9.09495e-09
1.58034e-07
1.60828e-06
1.43402e-06
4.95995e-05
2.19879e-05
5.30007e-05
4.84929e-05
7.91984e-06
1.6643e-06
1.1496e-09
-2.91038e-11
0
-1.45519e-11
1.45519e-11
0
1.45519e-11
-1.45519e-11
1.45519e-11
-4.36557e-11
1.45519e-11
-2.91038e-11
0
1.45519e-11
1.45519e-11
-1.45519e-11
0
-1.45519e-11
0
-2.91038e-11
1.45519e-11
0
-1.45519e-11
2.91038e-11
2.09548e-09
4.2055e-09
4.70027e-09
1.22818e-08
5.42786e-09
1.30967e-10
1.25146e-09
2.21189e-09
4.10364e-09
1.49525e-06
1.73411e-06
2.24495e-06
2.00522e-06
1.67223e-06
1.61247e-06
2.25555e-09
1.45519e-11
0
4.36557e-11
0
0
2.91038e-11
-1.45519e-11
-1.45519e-11
1.45519e-11
-1.45519e-11
0
1.45519e-11
0
0
0
1.45519e-11
-4.36557e-11
-1.45519e-11
0
2.91038e-11
2.91038e-11
2.91038e-11
1.45519e-11
-1.45519e-11
-1.45519e-11
5.82077e-11
1.16415e-10
5.82077e-11
0
1.45519e-11
0
0
5.82077e-11
1.01863e-10
1.60071e-10
7.27596e-11
2.15368e-09
1.26602e-09
1.45519e-11
1.45519e-11
-4.36557e-11
0
2.91038e-11
-1.45519e-11
-2.91038e-11
1.45519e-11
1.45519e-11
1.45519e-11
1.45519e-11
0
-2.91038e-11
1.45519e-11
0
1.45519e-11
0
0
2.91038e-11
-4.36557e-11
0
-2.91038e-11
1.45519e-11
1.45519e-11
-4.36557e-11
1.45519e-11
1.45519e-11
0
1.45519e-11
-1.45519e-11
2.91038e-11
1.45519e-11
0
-1.45519e-11
0
1.45519e-11
0
0
0
4.36557e-11
0
-1.45519e-11
2.91038e-11
-1.45519e-11
1.45519e-11
0
-2.91038e-11
-1.45519e-11
-2.91038e-11
1.45519e-11
-1.45519e-11
-2.91038e-11
0
1.45519e-11
-1.45519e-11
0
0
0
-2.91038e-11
2.91038e-11
1.45519e-11
0
0
1.45519e-11
0
1.45519e-11
2.91038e-11
2.91038e-11
-1.45519e-11
-1.45519e-11
-2.91038e-11
-1.45519e-11
0
1.45519e-11
2.91038e-11
-2.91038e-11
1.45519e-11
2.91038e-11
-2.91038e-11
-1.45519e-11
-1.45519e-11
-2.91038e-11
4.36557e-11
-2.91038e-11
1.45519e-11
1.45519e-11
-2.91038e-11
1.45519e-11
0
2.91038e-11
0
4.36557e-11
2.91038e-11
1.45519e-11
1.45519e-11
1.45519e-11
1.45519e-11
-1.45519e-11
0
0
-1.45519e-11
1.45519e-11
-1.45519e-11
-1.45519e-11
1.45519e-11
1.45519e-11
2.91038e-11
-1.45519e-11
0
-1.45519e-11
-1.45519e-11
-2.91038e-11
1.45519e-11
1.45519e-11
0
1.45519e-11
1.45519e-11
0
0
0
-1.45519e-11
0
-1.45519e-11
-1.45519e-11
0
1.45519e-11
-2.91038e-11
0
1.45519e-11
2.91038e-11
1.45519e-11
0
2.91038e-11
-1.45519e-11
0
0
0
0
1.45519e-11
2.91038e-11
-1.45519e-11
2.91038e-11
-2.91038e-11
-1.45519e-11
1.45519e-11
1.45519e-11
0
-1.45519e-11
0
0
-1.45519e-11
1.45519e-11
1.45519e-11
2.91038e-11
0
0
1.45519e-11
0
0
-2.91038e-11
-1.45519e-11
0
1.45519e-11
-1.45519e-11
1.45519e-11
0
-1.45519e-11
-1.45519e-11
1.45519e-11
0
1.45519e-11
1.45519e-11
1.45519e-11
1.45519e-11
0
1.45519e-11
0
1.45519e-11
1.45519e-11
1.45519e-11
1.45519e-11
1.45519e-11
-2.91038e-11
1.45519e-11
1.45519e-11
0
2.91038e-11
1.45519e-11
1.45519e-11
0
0
-2.91038e-11
-1.45519e-11
1.45519e-11
0
1.45519e-11
0
2.91038e-11
1.45519e-11
1.45519e-11
1.45519e-11
-2.91038e-11
1.45519e-11
-1.45519e-11
1.45519e-11
0
0
1.45519e-11
1.45519e-11
2.91038e-11
2.91038e-11
-2.91038e-11
0
0
0
1.45519e-11
1.45519e-11
1.45519e-11
0
1.45519e-11
-1.45519e-11
1.45519e-11
4.36557e-11
-2.91038e-11
1.45519e-11
-1.45519e-11
1.45519e-11
2.91038e-11
2.91038e-11
1.45519e-11
1.45519e-11
-1.45519e-11
1.45519e-11
1.45519e-11
1.45519e-11
1.45519e-11
-1.45519e-11
1.45519e-11
0
1.45519e-11
0
-1.45519e-11
-2.91038e-11
1.45519e-11
-2.91038e-11
-2.91038e-11
1.45519e-11
1.45519e-11
1.45519e-11
-2.91038e-11
0
1.45519e-11
0
2.91038e-11
1.45519e-11
1.45519e-11
1.45519e-11
1.45519e-11
1.45519e-11
0
2.91038e-11
1.45519e-11
0
1.45519e-11
1.45519e-11
1.45519e-11
0
-1.45519e-11
0
-2.91038e-11
1.45519e-11
1.45519e-11
-1.45519e-11
1.45519e-11
0
0
1.45519e-11
0
0
0
-2.91038e-11
-2.91038e-11
0
-1.45519e-11
0
1.45519e-11
1.45519e-11
1.45519e-11
1.45519e-11
1.45519e-11
0
-2.91038e-11
-1.45519e-11
-1.45519e-11
1.45519e-11
1.45519e-11
1.45519e-11
-1.45519e-11
0
1.45519e-11
0
0
-2.91038e-11
-1.45519e-11
0
0
-1.45519e-11
0
1.45519e-11
1.45519e-11
2.91038e-11
-1.45519e-11
0
1.45519e-11
0
-1.45519e-11
0
0
1.45519e-11
1.45519e-11
2.91038e-11
1.45519e-11
1.45519e-11
-1.45519e-11
1.45519e-11
-2.91038e-11
1.45519e-11
0
1.45519e-11
-2.91038e-11
-1.45519e-11
-1.45519e-11
0
1.45519e-11
0
2.91038e-11
-1.45519e-11
1.45519e-11
1.45519e-11
1.45519e-11
1.45519e-11
1.45519e-11
1.45519e-11
0
1.45519e-11
0
1.45519e-11
0
-1.45519e-11
1.45519e-11
0
0
1.45519e-11
-2.91038e-11
0
0
1.45519e-11
2.91038e-11
0
1.45519e-11
0
1.45519e-11
1.45519e-11
1.45519e-11
0
1.45519e-11
1.45519e-11
2.91038e-11
1.45519e-11
0
1.45519e-11
-1.45519e-11
1.45519e-11
1.45519e-11
-1.45519e-11
-1.45519e-11
1.45519e-11
-2.91038e-11
0
1.45519e-11
1.45519e-11
1.45519e-11
0
1.45519e-11
1.45519e-11
1.45519e-11
1.45519e-11
0
-1.45519e-11
2.91038e-11
1.45519e-11
0
-1.45519e-11
1.45519e-11
0
1.45519e-11
0
0
-1.45519e-11
1.45519e-11
1.45519e-11
1.45519e-11
2.91038e-11
0
1.45519e-11
-1.45519e-11
1.45519e-11
0
1.45519e-11
2.91038e-11
1.45519e-11
0
1.45519e-11
0
1.45519e-11
0
0
1.45519e-11
0
1.45519e-11
0
1.45519e-11
2.91038e-11
1.45519e-11
0
0
0
1.45519e-11
0
-1.45519e-11
0
1.45519e-11
1.45519e-11
-1.45519e-11
1.45519e-11
0
0
2.91038e-11
0
1.45519e-11
-1.45519e-11
1.45519e-11
0
-1.45519e-11
0
1.45519e-11
0
0
1.45519e-11
-1.45519e-11
2.91038e-11
-4.36557e-11
1.45519e-11
1.45519e-11
1.45519e-11
1.45519e-11
56.1298
56.1035
54.4618
52.6295
53.1791
56.1983
60.0099
61.8055
59.6689
56.9861
56.0018
56.0702
56.4591
56.9016
57.6095
58.8218
60.5539
63.0646
66.7639
69.7636
67.7461
61.3429
56.5667
55.5528
56.9198
59.4965
62.2241
63.9605
63.3727
60.7397
58.6898
58.8104
59.9504
63.6365
76.7389
90.3606
78.2037
59.952
55.5991
55.7499
68.8823
72.1664
73.2339
74.1488
78.2594
85.5849
93.6038
97.3073
94.5469
91.3081
92.3367
96.8981
102.204
107.246
113.123
120.27
127.834
135.805
145.958
155.743
155.071
141.82
129.304
127.554
134.707
145.055
154.659
160.536
160.361
155.037
150.535
151.294
152.738
151.762
157.145
155.985
120.89
82.5522
66.2246
65.2878
7.49604
8.54844
9.11297
9.03941
9.13177
10.1345
12.0652
13.5133
13.5301
13.0222
13.0989
13.8999
14.7527
15.4177
16.48
18.3671
20.6454
23.1545
27.2814
33.2044
36.0312
32.0518
26.5038
25.2108
28.5071
33.808
39.305
43.2593
43.6772
40.5995
37.0751
36.0925
36.5635
36.5935
37.0754
33.0427
21.8588
12.2116
7.98761
6.89365
0.0925044
0.101206
0.0978453
0.0686381
0.0489766
0.0737316
0.200104
0.411534
0.489054
0.395624
0.293162
0.232252
0.191246
0.165985
0.178443
0.254764
0.361737
0.445166
0.766913
1.87272
3.07391
2.47469
1.14487
0.588936
0.678912
1.22693
2.14824
3.09359
3.38942
2.79681
1.97409
1.61516
1.59546
1.64185
2.06702
2.24474
1.28744
0.393957
0.153297
0.105195
0.00555518
0.0191151
0.0444295
0.0658015
0.0627429
0.0348547
0.00264284
0.0169708
0.0429078
0.012034
0.00238872
0.0251342
0.0531697
0.0658797
0.0528412
0.0226032
0.00443422
0.00542125
0.00250406
0.0890426
0.509539
0.382199
0.0135292
0.0820267
0.105873
0.0184531
0.0169732
0.131095
0.201192
0.118487
0.0221575
0.00211014
0.00176068
0.00111791
0.0195399
0.099575
0.0532369
0.000953593
0.0110367
0.00502878
0.00551329
0.0128957
0.0353097
0.0503267
0.0406541
0.0221646
0.00648098
0.00085346
0.0153334
0.00611313
0.0050941
0.0351736
0.057909
0.0608569
0.0471988
0.0231357
0.00316681
0.001658
0.0179806
0.000455682
0.138795
0.183401
0.00170472
0.116898
0.15346
0.0580961
0.00398591
0.00508917
0.0208977
0.017201
0.00137498
0.00209567
0.00342463
0.00827114
0.00539584
0.00598278
0.00996531
0.00327158
0.0202921
0.0116687
0.00269703
0.00340538
0.0101177
0.0151506
0.0102978
0.00461197
0.00180952
1.17156e-05
0.00390019
0.005665
0.000132811
0.0118648
0.0237391
0.0239344
0.0171688
0.0079426
0.000389761
0.00049118
0.0042706
0.0102037
0.0212085
0.0912776
0.00464134
0.0463919
0.057937
0.0149042
0.00069701
0.00018831
0.000541732
0.000950636
0.000739538
7.89828e-05
0.000102184
0.000115386
0.00300816
0.000103045
0.00588462
5.75156e-05
0.00772213
0.00681794
0.000872478
0.0007894
0.001918
0.00277675
0.00162703
0.000536655
0.000266951
7.97677e-05
0.00038467
0.00200942
0.000368931
0.00167979
0.00648814
0.00737709
0.00471827
0.00199892
0.000109968
0.000561524
0.000207171
0.00538897
0.00146137
0.0305494
0.00345445
0.0131764
0.0134681
0.00242328
0.000111408
8.91904e-06
9.69012e-06
6.10322e-07
3.67253e-06
4.27797e-07
2.39164e-05
0.000181019
0.000168054
0.000163612
0.0011767
0.000463625
0.000861637
0.00172599
0.000178483
0.000161454
0.000311573
0.00036268
0.000187638
5.06931e-05
2.86765e-05
3.59471e-05
5.38465e-06
0.00035657
0.000258793
0.000103656
0.00127748
0.00170762
0.000981661
0.000406567
5.57435e-05
0.00015869
9.56416e-06
0.00118744
9.28496e-05
0.00757768
0.00103222
0.00324096
0.00280747
0.000395292
2.17378e-05
1.87753e-06
4.76168e-07
4.35102e-09
3.7835e-10
5.70886e-07
1.99566e-06
9.74086e-06
1.35445e-06
5.08103e-05
3.8804e-05
0.000179872
1.05044e-05
0.000199775
1.82497e-05
3.03075e-05
4.97123e-05
3.4934e-05
1.68369e-05
2.49638e-06
2.15936e-07
6.18458e-06
1.67193e-06
3.13123e-05
6.16114e-05
5.69648e-06
0.000192576
0.000263431
0.000115417
4.07557e-05
1.39056e-05
1.92313e-05
2.03607e-05
0.000172234
7.63172e-06
0.00139366
0.000186516
0.000695679
0.000494057
6.6569e-05
7.14255e-06
1.66598e-06
8.55653e-09
1.45519e-11
1.16415e-09
7.42148e-09
3.14321e-08
6.33008e-09
7.99439e-07
1.71442e-06
8.71369e-08
1.81154e-05
2.17895e-06
6.90794e-06
1.56336e-06
1.98094e-06
2.65522e-06
2.14373e-06
8.75807e-07
4.2899e-08
7.71252e-10
2.12312e-08
1.67267e-06
2.07334e-06
5.17491e-06
1.52315e-07
1.87907e-05
1.92662e-05
7.7906e-06
1.99613e-06
1.75301e-06
1.31404e-08
1.97181e-06
8.87195e-06
3.53508e-06
0.000169447
2.41138e-05
9.81082e-05
6.22396e-05
9.55963e-06
2.01019e-06
7.5961e-09
1.30967e-10
-2.91038e-11
0
2.91038e-11
1.30967e-10
6.98492e-10
9.83709e-09
2.41562e-09
1.44944e-06
1.15804e-07
1.59445e-06
4.10364e-09
2.59024e-09
1.35966e-06
1.61464e-06
5.64469e-08
7.05768e-09
3.63798e-10
1.45519e-11
1.04774e-09
3.94357e-09
1.01863e-09
5.23709e-07
4.39468e-09
1.73313e-07
2.01118e-06
1.58473e-06
2.79397e-09
7.33417e-09
3.27418e-09
1.45366e-06
1.00132e-07
9.59408e-08
1.22139e-05
1.69031e-06
8.36313e-06
7.37372e-06
1.95543e-06
7.47968e-09
1.45519e-11
5.82077e-11
1.45519e-11
1.45519e-11
1.45519e-11
-1.45519e-11
1.45519e-11
0
1.45519e-11
1.45519e-11
4.36557e-11
3.52156e-09
1.24564e-08
7.27596e-10
1.89175e-09
2.82307e-09
2.32831e-10
-1.45519e-11
-1.45519e-11
0
0
2.91038e-11
1.45519e-11
1.45519e-11
3.63798e-10
3.82715e-09
2.40107e-09
1.01863e-10
2.91038e-11
1.45519e-11
5.82077e-11
1.45519e-10
4.36557e-11
1.80444e-09
1.53358e-06
9.76434e-09
1.92143e-07
1.62607e-06
8.04721e-09
-1.45519e-11
1.45519e-11
-1.45519e-11
1.45519e-11
0
-1.45519e-11
-1.45519e-11
-4.36557e-11
0
0
-1.45519e-11
0
-1.45519e-11
2.91038e-11
0
2.91038e-11
0
-4.36557e-11
-1.45519e-11
1.45519e-11
0
1.45519e-11
-5.82077e-11
2.91038e-11
0
0
2.91038e-11
-1.45519e-11
0
-2.91038e-11
0
0
0
1.45519e-11
4.36557e-11
0
4.36557e-10
2.76486e-09
3.92902e-10
0
2.91038e-11
-2.91038e-11
-2.91038e-11
0
1.45519e-11
1.45519e-11
1.45519e-11
1.45519e-11
0
-1.45519e-11
2.91038e-11
-4.36557e-11
2.91038e-11
1.45519e-11
-1.45519e-11
-1.45519e-11
0
-4.36557e-11
-1.45519e-11
-1.45519e-11
1.45519e-11
2.91038e-11
-1.45519e-11
-1.45519e-11
1.45519e-11
0
-1.45519e-11
0
1.45519e-11
1.45519e-11
-1.45519e-11
0
-1.45519e-11
0
0
-1.45519e-11
-1.45519e-11
-1.45519e-11
0
2.91038e-11
-1.45519e-11
0
-1.45519e-11
0
-2.91038e-11
1.45519e-11
1.45519e-11
1.45519e-11
-1.45519e-11
-1.45519e-11
1.45519e-11
2.91038e-11
-1.45519e-11
0
-1.45519e-11
2.91038e-11
0
2.91038e-11
1.45519e-11
0
1.45519e-11
-2.91038e-11
-2.91038e-11
0
1.45519e-11
-1.45519e-11
4.36557e-11
-2.91038e-11
0
1.45519e-11
-2.91038e-11
-1.45519e-11
-1.45519e-11
1.45519e-11
1.45519e-11
-1.45519e-11
0
-2.91038e-11
0
-1.45519e-11
1.45519e-11
-2.91038e-11
1.45519e-11
0
0
0
-1.45519e-11
0
1.45519e-11
1.45519e-11
-1.45519e-11
-2.91038e-11
1.45519e-11
1.45519e-11
1.45519e-11
-1.45519e-11
-1.45519e-11
-2.91038e-11
1.45519e-11
0
0
0
1.45519e-11
0
1.45519e-11
1.45519e-11
0
1.45519e-11
-1.45519e-11
0
0
1.45519e-11
0
0
0
0
1.45519e-11
0
-1.45519e-11
0
-1.45519e-11
1.45519e-11
1.45519e-11
0
0
1.45519e-11
1.45519e-11
2.91038e-11
0
2.91038e-11
1.45519e-11
-1.45519e-11
1.45519e-11
1.45519e-11
1.45519e-11
1.45519e-11
0
1.45519e-11
0
-2.91038e-11
2.91038e-11
-1.45519e-11
-1.45519e-11
1.45519e-11
1.45519e-11
1.45519e-11
2.91038e-11
1.45519e-11
0
1.45519e-11
1.45519e-11
1.45519e-11
-1.45519e-11
1.45519e-11
1.45519e-11
1.45519e-11
0
-1.45519e-11
1.45519e-11
1.45519e-11
1.45519e-11
1.45519e-11
2.91038e-11
-1.45519e-11
1.45519e-11
1.45519e-11
1.45519e-11
1.45519e-11
1.45519e-11
0
1.45519e-11
0
-1.45519e-11
1.45519e-11
1.45519e-11
1.45519e-11
1.45519e-11
1.45519e-11
-1.45519e-11
1.45519e-11
1.45519e-11
1.45519e-11
0
1.45519e-11
1.45519e-11
1.45519e-11
1.45519e-11
1.45519e-11
0
1.45519e-11
0
-1.45519e-11
-2.91038e-11
1.45519e-11
0
1.45519e-11
1.45519e-11
1.45519e-11
0
1.45519e-11
1.45519e-11
0
1.45519e-11
1.45519e-11
0
1.45519e-11
1.45519e-11
1.45519e-11
0
-2.91038e-11
1.45519e-11
2.91038e-11
1.45519e-11
1.45519e-11
2.91038e-11
1.45519e-11
-1.45519e-11
1.45519e-11
1.45519e-11
1.45519e-11
1.45519e-11
0
1.45519e-11
1.45519e-11
1.45519e-11
1.45519e-11
0
1.45519e-11
1.45519e-11
1.45519e-11
1.45519e-11
1.45519e-11
-1.45519e-11
-2.91038e-11
0
1.45519e-11
1.45519e-11
1.45519e-11
4.36557e-11
-2.91038e-11
1.45519e-11
1.45519e-11
-1.45519e-11
2.91038e-11
0
1.45519e-11
-1.45519e-11
-2.91038e-11
2.91038e-11
1.45519e-11
1.45519e-11
1.45519e-11
0
-1.45519e-11
2.91038e-11
1.45519e-11
-1.45519e-11
0
-1.45519e-11
1.45519e-11
0
1.45519e-11
1.45519e-11
0
1.45519e-11
1.45519e-11
-2.91038e-11
1.45519e-11
0
0
2.91038e-11
-2.91038e-11
0
1.45519e-11
-2.91038e-11
1.45519e-11
0
1.45519e-11
0
-2.91038e-11
1.45519e-11
-2.91038e-11
1.45519e-11
1.45519e-11
1.45519e-11
1.45519e-11
1.45519e-11
0
1.45519e-11
1.45519e-11
2.91038e-11
0
1.45519e-11
1.45519e-11
1.45519e-11
0
1.45519e-11
1.45519e-11
-1.45519e-11
1.45519e-11
-1.45519e-11
1.45519e-11
0
1.45519e-11
1.45519e-11
1.45519e-11
0
2.91038e-11
0
2.91038e-11
1.45519e-11
0
-1.45519e-11
1.45519e-11
2.91038e-11
-2.91038e-11
1.45519e-11
-1.45519e-11
2.91038e-11
-2.91038e-11
-2.91038e-11
2.91038e-11
0
-1.45519e-11
-1.45519e-11
0
0
1.45519e-11
0
0
0
2.91038e-11
0
-1.45519e-11
1.45519e-11
0
-1.45519e-11
1.45519e-11
2.91038e-11
1.45519e-11
0
1.45519e-11
1.45519e-11
1.45519e-11
1.45519e-11
-1.45519e-11
2.91038e-11
0
1.45519e-11
1.45519e-11
2.91038e-11
1.45519e-11
1.45519e-11
1.45519e-11
1.45519e-11
1.45519e-11
1.45519e-11
1.45519e-11
0
1.45519e-11
1.45519e-11
1.45519e-11
-1.45519e-11
1.45519e-11
-2.91038e-11
1.45519e-11
-4.36557e-11
1.45519e-11
1.45519e-11
1.45519e-11
1.45519e-11
-2.91038e-11
0
0
1.45519e-11
-1.45519e-11
-4.36557e-11
-1.45519e-11
1.45519e-11
1.45519e-11
1.45519e-11
-1.45519e-11
1.45519e-11
1.45519e-11
0
1.45519e-11
-2.91038e-11
1.45519e-11
1.45519e-11
1.45519e-11
-1.45519e-11
1.45519e-11
-1.45519e-11
1.45519e-11
-1.45519e-11
1.45519e-11
0
0
-1.45519e-11
-1.45519e-11
1.45519e-11
0
-1.45519e-11
1.45519e-11
0
1.45519e-11
-4.36557e-11
0
1.45519e-11
1.45519e-11
1.45519e-11
1.45519e-11
0
2.91038e-11
2.91038e-11
2.91038e-11
1.45519e-11
1.45519e-11
0
1.45519e-11
-2.91038e-11
0
1.45519e-11
1.45519e-11
1.45519e-11
-4.36557e-11
-1.45519e-11
1.45519e-11
-1.45519e-11
-1.45519e-11
-1.45519e-11
0
-1.45519e-11
-2.91038e-11
-2.91038e-11
1.45519e-11
1.45519e-11
-1.45519e-11
1.45519e-11
-1.45519e-11
1.45519e-11
-1.45519e-11
1.45519e-11
0
1.45519e-11
1.45519e-11
1.45519e-11
-1.45519e-11
-1.45519e-11
1.45519e-11
1.45519e-11
0
-1.45519e-11
-1.45519e-11
57.9349
56.7554
54.4413
53.471
54.463
56.3517
58.0015
58.735
58.6347
57.5574
56.0429
54.8259
54.3151
54.6036
55.6382
56.7053
57.8708
60.1187
64.3139
70.0437
74.5584
72.8204
65.6584
60.7763
59.6477
59.8367
59.7309
58.3938
56.4835
55.8898
57.9462
62.3465
67.0787
70.7694
75.1608
78.8355
74.7723
65.5624
59.5429
57.9444
75.64
77.3729
79.5412
83.4861
89.6727
96.6439
102.244
105.004
106.345
106.84
107.394
109.284
113.37
119.409
126.52
133.084
139.181
146.836
157.201
166.919
169.317
158.351
136.722
120.388
119.004
125.709
132.302
135.299
135.82
138.035
144.857
154.441
160.616
158.65
151.342
139.738
119.594
97.7622
82.0964
75.5471
9.16305
10.2911
11.2455
11.9146
12.9887
14.6709
16.3496
17.8187
19.0322
19.6172
19.5504
19.4228
20.0485
21.6076
23.7328
25.9117
27.9808
30.339
34.0784
39.022
41.8129
38.494
30.3058
23.8727
23.8699
28.4546
33.028
34.9552
34.3385
33.3476
34.2453
37.0835
39.2339
38.3815
34.8739
28.6693
20.7105
14.4313
11.0097
9.19047
0.253354
0.185795
0.169652
0.163638
0.186311
0.252603
0.358647
0.4915
0.631372
0.722012
0.68935
0.573698
0.491928
0.485581
0.546306
0.653169
0.763761
0.835315
1.0891
2.00009
3.2767
3.35487
2.0383
0.996693
0.857512
1.3784
2.10659
2.39477
2.08035
1.60849
1.44918
1.73708
2.15307
2.26672
2.11737
1.66195
0.964491
0.468917
0.377816
0.387605
0.0124331
0.0152576
0.0710496
0.089888
0.0744306
0.046779
0.0212536
0.00611959
0.000976314
0.000404053
0.00156475
0.0123905
0.0326359
0.0445152
0.0395206
0.0231742
0.00719541
0.00355779
0.00290582
0.0348724
0.368763
0.496174
0.137527
0.00198566
0.0134055
0.000453024
0.0296556
0.0431972
0.013905
0.00209522
0.00454937
0.00135139
0.0329806
0.0625143
0.0619555
0.0373757
0.00619025
0.000568612
0.00282009
0.0346871
0.00505968
0.0133086
0.0827633
0.113093
0.100463
0.0755358
0.0498295
0.030142
0.0177886
0.0126563
0.0180024
0.0395237
0.0682198
0.0806054
0.0677065
0.0411725
0.0142298
0.00162197
0.0046767
0.00593746
0.0393889
0.165418
0.0386053
0.0209938
0.0699452
0.0333549
0.00541774
0.00241661
0.00921754
0.019954
0.0217659
0.0101201
0.000235378
0.00211858
0.00418101
0.00166197
0.00182483
0.00948334
0.00258501
0.00383743
0.00182036
0.00285518
0.0327504
0.0502317
0.0447625
0.034161
0.0242023
0.0163685
0.0103081
0.00610629
0.00582055
0.0134907
0.0280462
0.0353563
0.0261189
0.0120141
0.0038644
0.000139794
7.94056e-05
0.00272335
0.000156693
0.0299859
0.0225728
0.00320268
0.0283982
0.0193238
0.00532356
0.00208931
0.00245578
0.00227446
0.00128262
0.000563045
1.76383e-05
0.000176785
0.000777193
0.00140091
2.47554e-05
0.00280173
0.00196015
0.000315629
0.000454864
0.00042011
0.00768497
0.0135232
0.012253
0.00943152
0.00719115
0.00517562
0.00317507
0.00166976
0.000977189
0.00170109
0.00450564
0.00677519
0.00490779
0.00187117
0.000603674
0.000131179
2.78042e-05
3.81443e-05
0.000450233
0.00203303
0.00617448
5.54584e-05
0.00544101
0.00490667
0.00162998
0.000517239
0.000245681
7.7005e-05
7.10043e-06
6.98492e-09
2.02427e-06
3.0011e-06
7.33684e-06
0.00024171
0.000235354
0.000150553
0.000294032
8.89972e-05
0.000102235
7.96775e-05
0.00136774
0.00247003
0.00222361
0.00172421
0.0013814
0.00102914
0.000556163
0.000225717
0.000160572
0.000204342
0.000342371
0.000426016
0.000271285
0.000115145
4.69556e-05
1.62758e-05
1.64144e-06
6.99743e-07
4.9364e-05
0.000128212
0.000939207
1.59264e-05
0.000824074
0.000869487
0.000335364
0.000100034
2.97522e-05
6.24743e-06
2.19006e-08
4.03088e-09
2.05182e-09
4.03088e-09
8.60629e-07
2.52278e-06
2.74e-05
2.24785e-06
1.3063e-05
5.67568e-05
1.84466e-05
2.06908e-05
0.000193991
0.000291767
0.000242601
0.000182124
0.00014839
0.000101086
4.74615e-05
1.62349e-05
8.80448e-06
1.78978e-05
1.56131e-05
7.21581e-06
2.3802e-06
1.81475e-06
2.22905e-06
2.1224e-06
1.39387e-06
3.26065e-07
4.6507e-06
1.27363e-05
0.000108517
2.29373e-06
0.000106211
0.000127284
5.15713e-05
1.75887e-05
6.5174e-06
1.78312e-06
2.58879e-08
4.67116e-09
1.06229e-09
1.16415e-10
3.47791e-09
2.40107e-09
1.82161e-06
2.46393e-07
7.27305e-08
2.30414e-05
2.13496e-06
2.2811e-06
1.81034e-05
1.90013e-05
1.80239e-05
9.08943e-06
8.47364e-06
6.96906e-06
1.99367e-06
1.73398e-06
1.44992e-06
1.79252e-06
1.70298e-06
1.00554e-08
0
3.34694e-10
6.98492e-10
9.02219e-10
2.48838e-09
3.89991e-09
1.66992e-06
1.69865e-06
9.04435e-06
1.49332e-07
1.58298e-05
1.7925e-05
5.09182e-06
1.65582e-06
1.65915e-06
7.91624e-09
1.45519e-11
2.91038e-11
1.45519e-11
1.45519e-11
1.96451e-09
2.76486e-10
1.32859e-08
2.71248e-08
2.48838e-08
4.06313e-06
1.62412e-06
1.52184e-07
1.68887e-06
8.61517e-07
6.3052e-07
1.41983e-07
1.50154e-06
1.60071e-08
9.93896e-09
2.95404e-09
5.09317e-10
1.16415e-09
1.26602e-09
7.27596e-11
4.36557e-11
2.91038e-11
-2.91038e-11
2.91038e-11
1.45519e-11
1.10595e-09
1.98634e-08
5.23112e-07
1.79869e-06
1.55851e-08
7.17395e-07
8.24206e-07
1.65509e-06
1.44501e-08
8.73115e-11
0
-1.45519e-11
-1.45519e-11
1.45519e-11
1.45519e-11
-2.91038e-11
2.91038e-11
0
4.36557e-11
2.18279e-09
1.36053e-06
2.22644e-09
1.26602e-08
3.9814e-08
8.45466e-09
1.94996e-09
8.44011e-10
1.16415e-10
1.45519e-11
-2.91038e-11
-4.36557e-11
0
1.45519e-11
-1.45519e-11
-1.45519e-11
0
1.45519e-11
1.45519e-11
-4.36557e-11
-1.45519e-11
-1.45519e-11
0
5.82077e-10
6.46105e-09
8.58563e-10
2.07801e-08
8.01811e-09
2.61934e-10
-1.45519e-11
-1.45519e-11
-4.36557e-11
1.45519e-11
2.91038e-11
-1.45519e-11
1.45519e-11
-2.91038e-11
1.45519e-11
0
1.45519e-11
5.82077e-11
2.18279e-09
2.91038e-11
7.27596e-10
2.91038e-10
0
1.45519e-11
-2.91038e-11
1.45519e-11
-4.36557e-11
2.91038e-11
2.91038e-11
1.45519e-11
-1.45519e-11
-1.45519e-11
1.45519e-11
-1.45519e-11
-1.45519e-11
-4.36557e-11
4.36557e-11
1.45519e-11
0
0
1.45519e-11
1.45519e-11
1.74623e-10
8.73115e-11
-4.36557e-11
-1.45519e-11
2.91038e-11
1.45519e-11
0
0
1.45519e-11
0
0
1.45519e-11
1.45519e-11
0
0
1.45519e-11
0
-1.45519e-11
-4.36557e-11
-4.36557e-11
0
-4.36557e-11
-1.45519e-11
0
0
0
-2.91038e-11
1.45519e-11
-1.45519e-11
2.91038e-11
1.45519e-11
-1.45519e-11
2.91038e-11
2.91038e-11
1.45519e-11
0
-1.45519e-11
-1.45519e-11
-2.91038e-11
0
2.91038e-11
0
1.45519e-11
0
1.45519e-11
0
-2.91038e-11
1.45519e-11
1.45519e-11
1.45519e-11
0
1.45519e-11
0
0
-1.45519e-11
-1.45519e-11
1.45519e-11
-2.91038e-11
1.45519e-11
2.91038e-11
0
0
1.45519e-11
-2.91038e-11
-1.45519e-11
0
2.91038e-11
1.45519e-11
-1.45519e-11
0
0
-2.91038e-11
1.45519e-11
-1.45519e-11
0
0
0
0
0
-2.91038e-11
0
-1.45519e-11
-2.91038e-11
0
2.91038e-11
2.91038e-11
1.45519e-11
-1.45519e-11
1.45519e-11
-2.91038e-11
0
-2.91038e-11
-2.91038e-11
-4.36557e-11
1.45519e-11
-2.91038e-11
0
1.45519e-11
1.45519e-11
0
0
-1.45519e-11
-1.45519e-11
1.45519e-11
0
1.45519e-11
1.45519e-11
1.45519e-11
1.45519e-11
0
1.45519e-11
1.45519e-11
0
0
1.45519e-11
1.45519e-11
1.45519e-11
1.45519e-11
0
2.91038e-11
1.45519e-11
1.45519e-11
1.45519e-11
1.45519e-11
-1.45519e-11
0
2.91038e-11
-1.45519e-11
-1.45519e-11
0
1.45519e-11
1.45519e-11
-2.91038e-11
0
-2.91038e-11
-2.91038e-11
1.45519e-11
1.45519e-11
-1.45519e-11
-2.91038e-11
-1.45519e-11
1.45519e-11
0
1.45519e-11
1.45519e-11
2.91038e-11
0
0
0
-2.91038e-11
1.45519e-11
-1.45519e-11
1.45519e-11
1.45519e-11
-1.45519e-11
1.45519e-11
1.45519e-11
1.45519e-11
0
0
-1.45519e-11
-1.45519e-11
1.45519e-11
-1.45519e-11
-1.45519e-11
1.45519e-11
0
1.45519e-11
-2.91038e-11
1.45519e-11
2.91038e-11
2.91038e-11
1.45519e-11
1.45519e-11
0
1.45519e-11
-1.45519e-11
1.45519e-11
1.45519e-11
-2.91038e-11
-2.91038e-11
1.45519e-11
0
-1.45519e-11
0
1.45519e-11
1.45519e-11
2.91038e-11
0
0
1.45519e-11
-1.45519e-11
1.45519e-11
0
1.45519e-11
1.45519e-11
1.45519e-11
1.45519e-11
1.45519e-11
1.45519e-11
1.45519e-11
-2.91038e-11
1.45519e-11
1.45519e-11
1.45519e-11
1.45519e-11
-1.45519e-11
0
1.45519e-11
1.45519e-11
-1.45519e-11
0
1.45519e-11
0
0
0
0
1.45519e-11
2.91038e-11
2.91038e-11
0
0
1.45519e-11
-1.45519e-11
1.45519e-11
-1.45519e-11
1.45519e-11
-1.45519e-11
1.45519e-11
-1.45519e-11
0
-2.91038e-11
1.45519e-11
0
1.45519e-11
2.91038e-11
1.45519e-11
0
-1.45519e-11
0
0
2.91038e-11
1.45519e-11
0
-2.91038e-11
1.45519e-11
1.45519e-11
1.45519e-11
1.45519e-11
-1.45519e-11
2.91038e-11
4.36557e-11
-1.45519e-11
1.45519e-11
1.45519e-11
1.45519e-11
0
0
0
0
-1.45519e-11
1.45519e-11
1.45519e-11
1.45519e-11
0
0
-1.45519e-11
-1.45519e-11
0
-1.45519e-11
2.91038e-11
1.45519e-11
-1.45519e-11
1.45519e-11
0
1.45519e-11
-1.45519e-11
2.91038e-11
-1.45519e-11
-1.45519e-11
1.45519e-11
1.45519e-11
0
-1.45519e-11
1.45519e-11
1.45519e-11
1.45519e-11
-2.91038e-11
-2.91038e-11
0
1.45519e-11
0
-2.91038e-11
1.45519e-11
-1.45519e-11
2.91038e-11
4.36557e-11
-1.45519e-11
-2.91038e-11
1.45519e-11
-4.36557e-11
1.45519e-11
1.45519e-11
1.45519e-11
-2.91038e-11
2.91038e-11
0
-1.45519e-11
0
1.45519e-11
0
-2.91038e-11
1.45519e-11
1.45519e-11
1.45519e-11
-1.45519e-11
1.45519e-11
0
0
2.91038e-11
0
-1.45519e-11
1.45519e-11
-4.36557e-11
1.45519e-11
0
-2.91038e-11
1.45519e-11
-4.36557e-11
1.45519e-11
0
0
1.45519e-11
-2.91038e-11
1.45519e-11
0
1.45519e-11
-2.91038e-11
-1.45519e-11
-2.91038e-11
-2.91038e-11
-2.91038e-11
1.45519e-11
1.45519e-11
2.91038e-11
1.45519e-11
1.45519e-11
0
-1.45519e-11
1.45519e-11
0
1.45519e-11
-1.45519e-11
0
1.45519e-11
0
2.91038e-11
1.45519e-11
2.91038e-11
-2.91038e-11
1.45519e-11
1.45519e-11
-1.45519e-11
1.45519e-11
1.45519e-11
1.45519e-11
1.45519e-11
1.45519e-11
0
-1.45519e-11
1.45519e-11
1.45519e-11
1.45519e-11
0
0
0
0
1.45519e-11