/*--------------------------------*- C++ -*----------------------------------*\
| =========                 |                                                 |
| \\      /  F ield         | OpenFOAM: The Open Source CFD Toolbox           |
|  \\    /   O peration     | Version:  5.0                                   |
|   \\  /    A nd           | Web:      www.OpenFOAM.org                      |
|    \\/     M anipulation  |                                                 |
\*---------------------------------------------------------------------------*/
FoamFile
{
    version     2.0;
    format      ascii;
    class       volScalarField;
    location    "50.4676134421789371";
    object      TPrime;
}
// * * * * * * * * * * * * * * * * * * * * * * * * * * * * * * * * * * * * * //

dimensions      [0 0 0 1 0 0 0];

internalField   nonuniform List<scalar> 
60000
(
13.7303
14.0167
14.187
13.906
13.183
12.7549
12.8999
13.0408
12.9916
13.0209
13.2549
13.5548
13.6985
13.5997
13.4499
13.4648
13.5722
13.595
13.3845
13.0264
12.6046
12.2666
12.1822
12.2885
12.4579
12.6555
13.0092
13.684
14.4405
14.5925
13.9085
13.0648
12.6902
13.0421
14.0227
14.6859
14.1341
13.2932
13.1503
13.4093
18.5242
18.5038
18.1881
17.3856
16.2629
15.611
15.7826
16.2881
16.7938
17.4639
18.2792
18.844
18.8815
18.3993
17.8332
17.8167
18.4632
19.3328
19.8439
19.9691
19.9209
19.8508
20.0483
20.5079
21.031
21.4976
22.0584
22.8988
23.6849
23.6063
22.4867
21.175
20.3959
20.3978
21.0315
21.2071
19.9873
18.4553
17.9876
18.2688
7.81038
7.89495
7.67057
7.03378
6.19793
5.67647
5.66804
5.92202
6.25987
6.8191
7.60452
8.19332
8.20001
7.65771
6.99367
6.71854
7.10397
7.99738
8.89766
9.30372
9.3439
9.35714
9.55472
9.88474
10.1659
10.4292
10.9199
11.7816
12.5807
12.5747
11.716
10.6997
10.0551
9.9298
10.1948
10.0297
8.96545
7.80221
7.33793
7.52593
1.47573
1.54307
1.49342
1.26537
0.934903
0.7183
0.74279
0.901004
1.01179
1.15428
1.39792
1.57566
1.49802
1.16982
0.804434
0.630389
0.843521
1.50028
2.37992
2.81963
2.5232
2.00921
1.65374
1.48869
1.47808
1.56592
1.80592
2.46074
3.37304
3.78698
3.4153
2.72434
2.18041
1.99986
2.26256
2.46914
2.10335
1.523
1.26899
1.34112
0.117359
0.0702381
-0.0113515
-0.0836296
-0.159767
-0.215913
-0.180688
-0.0460544
0.0562762
0.117218
0.216781
0.226662
-0.0109202
-0.346966
-0.566713
-0.594766
-0.395614
0.119633
0.969049
1.57212
1.21224
0.247444
-0.550876
-0.878371
-0.75201
-0.444688
-0.259015
0.00239623
0.658499
1.17342
1.02388
0.508322
0.0550144
-0.149096
0.0255797
0.345674
0.312113
0.0380825
-0.0613382
0.0456779
-0.0625541
-0.0773965
-0.136911
-0.16939
-0.185614
-0.214795
-0.213463
-0.149553
-0.0748915
-0.0392946
0.0220215
0.071499
-0.058209
-0.330385
-0.50986
-0.522322
-0.439543
-0.197939
0.463705
1.1894
1.07513
0.094347
-0.859558
-1.1637
-0.847867
-0.36927
-0.133511
-0.185712
-0.0452698
0.391409
0.519972
0.21819
-0.147541
-0.354797
-0.317678
-0.0895056
-0.00177846
-0.138734
-0.221704
-0.149721
-0.055659
-0.0453144
-0.0674013
-0.0776025
-0.0756281
-0.0903577
-0.110634
-0.0948193
-0.0587812
-0.0335487
-0.00296812
0.036893
0.0052686
-0.116417
-0.224344
-0.237159
-0.243021
-0.242902
0.128651
0.828787
0.952239
0.158271
-0.731602
-0.894538
-0.498736
-0.170876
-0.0113547
0.00690049
-0.0860338
-0.0176539
0.169267
0.183635
0.0227511
-0.137354
-0.187321
-0.117427
-0.0380956
-0.0642628
-0.117221
-0.102548
-0.0274467
-0.0226058
-0.025003
-0.0252727
-0.0162757
-0.0148853
-0.0275475
-0.0341195
-0.0248669
-0.0128951
0.0050314
0.0247241
0.0120505
-0.0391531
-0.0844083
-0.0735798
-0.0704646
-0.170555
-0.0780717
0.456802
0.706809
0.140017
-0.510278
-0.528141
-0.236251
-0.0703671
-0.0272316
0.00690886
0.0094722
-0.0216012
-0.00552896
0.0472713
0.0550997
0.00645684
-0.0444131
-0.052596
-0.0303476
-0.0224455
-0.0342851
-0.0379004
-0.00745294
-0.0072218
-0.00738399
-0.00716256
-0.00258694
-9.02761e-05
-0.000135436
-0.00494631
-0.00778348
-0.00258302
0.00578256
0.0169096
0.010043
-0.0194338
-0.0389495
-0.0225891
0.00222376
-0.0696582
-0.117833
0.171397
0.413371
0.0906009
-0.289947
-0.269153
-0.113174
-0.0286686
-0.00570259
-0.00429567
0.00254345
0.00240004
-0.00480865
-0.0026774
0.00777616
0.0140909
0.00306939
-0.0104416
-0.012199
-0.00769947
-0.00723375
-0.00984282
-0.00273256
-0.00288577
-0.00202608
-0.0018483
-0.00263396
-0.000141888
7.15058e-06
-1.51387e-05
-0.00248872
-0.00276792
0.00275628
0.009838
0.00482507
-0.00770057
-0.0173133
-0.00982216
0.0094678
-0.00798899
-0.0618951
0.0301174
0.182247
0.0526604
-0.135786
-0.121664
-0.0479832
-0.0118733
-0.00307811
-7.82559e-06
-0.00256817
5.50998e-05
0.000154149
-0.000108749
-0.00258846
5.84426e-05
0.00292451
0.000335808
-0.00270251
-0.00208504
-0.00281951
-0.00261056
-4.33398e-05
-0.000185497
-0.000231312
-0.000129322
-3.22551e-05
-6.14377e-06
3.75871e-05
5.79664e-05
-0.000100313
-0.000175599
7.96576e-05
0.00225623
0.00225634
-0.00195844
-0.0076516
-0.00502314
0.00246074
0.00414561
-0.0142183
-0.00351437
0.0569774
0.0253546
-0.0490029
-0.0457178
-0.0156817
-0.00264917
-0.00261689
-0.000112752
1.20628e-05
-8.53229e-06
1.09609e-05
6.1263e-06
3.74741e-06
-1.39164e-05
2.76631e-06
4.17063e-06
6.74377e-06
-7.29135e-05
-6.18278e-05
3.12974e-05
-1.20376e-05
-3.02852e-05
-3.40816e-05
-7.20121e-06
-6.56776e-07
-5.01306e-08
-1.05502e-07
1.371e-06
5.97662e-06
-4.217e-05
-8.10481e-05
0.00259845
0.000276256
-0.00258213
-0.00271852
-0.00265089
-0.000166837
0.000331791
-0.00247687
-0.00252288
0.0123423
0.00981705
-0.0122364
-0.0125203
-0.0053128
-0.00275564
-7.36812e-05
-1.79318e-06
-1.65311e-07
4.61129e-08
-4.77147e-08
-2.62402e-08
-1.90249e-08
5.70448e-08
-4.19072e-09
-3.86934e-08
1.43335e-07
-3.03558e-06
-6.90425e-07
-1.39906e-07
-2.82892e-08
-2.88181e-07
-5.07629e-07
-1.18515e-07
-1.01441e-08
-6.33975e-10
-3.63229e-11
2.84763e-09
-1.21326e-07
2.27202e-06
-4.91773e-05
7.58212e-05
7.85322e-05
-0.000132812
-9.27988e-05
-2.12439e-05
4.05174e-05
4.52326e-05
2.81279e-05
-0.00260892
0.0025499
0.00311065
-0.00269742
-0.00207671
-0.00270761
-0.000101308
-3.53602e-06
-1.26341e-07
-4.07823e-09
-3.4288e-10
1.27613e-10
8.04334e-11
7.63407e-11
-1.96223e-10
-6.19593e-12
1.21076e-10
3.13719e-10
-5.4269e-09
-6.48146e-09
2.61185e-08
1.70985e-10
-1.73378e-09
-5.20129e-09
-1.31149e-09
-1.1562e-10
-6.76437e-12
1.25056e-12
-3.00133e-11
5.26882e-10
-6.04467e-09
2.70425e-08
1.23461e-06
-8.9253e-06
-9.63992e-06
-1.18907e-06
-1.91553e-07
8.05196e-08
9.92657e-07
4.88907e-06
5.84057e-06
-2.39433e-05
1.40738e-05
-4.65025e-05
-4.98751e-05
-1.07087e-05
-3.39035e-07
-1.69291e-09
3.85114e-10
2.6148e-11
1.7053e-12
-1.7053e-13
-2.27374e-13
-2.27374e-13
6.25278e-13
0
-3.97904e-13
2.27374e-13
-4.88853e-12
-4.07567e-11
1.72577e-10
1.59162e-12
-4.20641e-12
-3.22871e-11
-9.26548e-12
-8.52651e-13
-5.68434e-14
0
5.68434e-14
-1.13687e-12
1.18803e-11
-7.70228e-11
1.36589e-09
-3.05323e-08
-7.38909e-08
-1.37078e-08
-2.04091e-09
1.62004e-10
1.5566e-09
-1.24269e-08
-3.64826e-08
1.19179e-07
-1.84948e-08
-9.1273e-08
-2.05911e-07
-4.01442e-08
-1.9208e-09
-7.81029e-11
-3.63798e-12
-2.27374e-13
-1.13687e-13
-1.13687e-13
0
-5.68434e-14
-5.68434e-14
0
0
-5.68434e-14
0
-1.7053e-13
6.82121e-13
0
1.13687e-13
-5.68434e-14
1.13687e-13
0
-5.68434e-14
0
5.68434e-14
5.68434e-14
0
2.27374e-13
1.76215e-12
-5.8435e-11
-4.98744e-10
-1.45917e-10
-2.34763e-11
0
2.6148e-12
1.59162e-11
1.59389e-10
-4.00973e-10
3.52429e-12
-1.7468e-10
-8.55835e-10
-2.0151e-10
-1.44382e-11
-7.95808e-13
-1.13687e-13
0
5.68434e-14
-5.68434e-14
5.68434e-14
-5.68434e-14
1.13687e-13
-5.68434e-14
1.13687e-13
5.68434e-14
0
5.68434e-14
0
5.68434e-14
0
0
-5.68434e-14
0
0
0
-5.68434e-14
0
0
1.13687e-13
-5.68434e-14
0
-3.0127e-12
-1.42109e-12
-1.7053e-13
0
0
0
-5.11591e-13
9.09495e-13
-5.68434e-14
-3.97904e-13
-4.26326e-12
-1.25056e-12
-1.13687e-13
0
0
-5.68434e-14
5.68434e-14
-5.68434e-14
5.68434e-14
5.68434e-14
0
0
-5.68434e-14
1.13687e-13
0
-1.13687e-13
-5.68434e-14
-5.68434e-14
-5.68434e-14
5.68434e-14
0
5.68434e-14
1.13687e-13
-5.68434e-14
5.68434e-14
5.68434e-14
0
-5.68434e-14
5.68434e-14
-5.68434e-14
-5.68434e-14
0
5.68434e-14
0
1.13687e-13
-5.68434e-14
-5.68434e-14
0
-5.68434e-14
-5.68434e-14
-5.68434e-14
-5.68434e-14
5.68434e-14
0
0
5.68434e-14
0
0
5.68434e-14
0
0
0
0
5.68434e-14
0
5.68434e-14
0
5.68434e-14
0
0
5.68434e-14
0
0
-5.68434e-14
0
0
0
5.68434e-14
0
0
-1.13687e-13
5.68434e-14
-5.68434e-14
0
5.68434e-14
0
5.68434e-14
5.68434e-14
0
5.68434e-14
0
5.68434e-14
-5.68434e-14
5.68434e-14
5.68434e-14
0
5.68434e-14
-5.68434e-14
0
0
0
1.13687e-13
-5.68434e-14
5.68434e-14
0
-5.68434e-14
0
5.68434e-14
0
-5.68434e-14
5.68434e-14
-5.68434e-14
0
1.13687e-13
-5.68434e-14
0
0
0
0
5.68434e-14
0
5.68434e-14
0
0
0
0
0
-5.68434e-14
0
5.68434e-14
5.68434e-14
5.68434e-14
0
-5.68434e-14
0
-5.68434e-14
-5.68434e-14
0
0
0
-5.68434e-14
-5.68434e-14
0
-5.68434e-14
5.68434e-14
0
0
0
-5.68434e-14
0
0
5.68434e-14
5.68434e-14
5.68434e-14
0
5.68434e-14
0
5.68434e-14
0
0
-5.68434e-14
0
5.68434e-14
-5.68434e-14
0
0
0
0
-5.68434e-14
5.68434e-14
-5.68434e-14
-5.68434e-14
-5.68434e-14
5.68434e-14
0
5.68434e-14
0
5.68434e-14
0
5.68434e-14
0
-5.68434e-14
-5.68434e-14
0
0
5.68434e-14
0
0
-5.68434e-14
-5.68434e-14
0
-5.68434e-14
-5.68434e-14
-5.68434e-14
5.68434e-14
0
-5.68434e-14
0
0
0
5.68434e-14
1.13687e-13
0
-5.68434e-14
0
-5.68434e-14
-5.68434e-14
-5.68434e-14
-1.13687e-13
5.68434e-14
0
1.13687e-13
5.68434e-14
0
-5.68434e-14
5.68434e-14
-5.68434e-14
0
-5.68434e-14
5.68434e-14
-5.68434e-14
5.68434e-14
0
0
5.68434e-14
-5.68434e-14
5.68434e-14
-5.68434e-14
5.68434e-14
5.68434e-14
0
0
0
5.68434e-14
-5.68434e-14
0
0
5.68434e-14
1.13687e-13
0
5.68434e-14
0
1.13687e-13
0
-5.68434e-14
-1.13687e-13
0
0
0
-5.68434e-14
5.68434e-14
0
5.68434e-14
5.68434e-14
5.68434e-14
5.68434e-14
0
0
5.68434e-14
-5.68434e-14
-5.68434e-14
0
5.68434e-14
5.68434e-14
0
-5.68434e-14
-1.13687e-13
5.68434e-14
-5.68434e-14
-1.13687e-13
5.68434e-14
0
0
-1.13687e-13
-5.68434e-14
5.68434e-14
0
0
-5.68434e-14
-5.68434e-14
0
0
0
0
5.68434e-14
-5.68434e-14
0
-1.13687e-13
-1.13687e-13
0
5.68434e-14
0
5.68434e-14
5.68434e-14
-5.68434e-14
0
0
0
-5.68434e-14
0
0
5.68434e-14
0
1.13687e-13
0
5.68434e-14
0
-5.68434e-14
5.68434e-14
5.68434e-14
5.68434e-14
0
5.68434e-14
1.13687e-13
5.68434e-14
-5.68434e-14
-5.68434e-14
-5.68434e-14
0
-5.68434e-14
0
-5.68434e-14
5.68434e-14
5.68434e-14
0
0
-5.68434e-14
5.68434e-14
0
-5.68434e-14
0
0
0
5.68434e-14
5.68434e-14
-5.68434e-14
0
-5.68434e-14
-5.68434e-14
0
0
0
-5.68434e-14
0
0
0
0
12.9675
12.9584
12.7681
12.5094
12.4948
12.7998
13.2375
13.4782
13.2584
12.9067
12.7374
12.6955
12.6833
12.6767
12.7157
12.8325
13.019
13.2958
13.711
14.0885
13.9385
13.2058
12.5655
12.4119
12.5732
12.8699
13.1976
13.4427
13.4277
13.1244
12.8177
12.7599
12.888
13.3397
14.8071
16.471
15.6497
13.5724
12.9396
12.9409
15.2146
15.5752
15.6805
15.7463
16.1323
16.8404
17.6106
17.9923
17.776
17.4609
17.5138
17.8938
18.3298
18.7202
19.1594
19.6877
20.2366
20.801
21.5262
22.2709
22.3396
21.4487
20.4481
20.2079
20.6702
21.3775
22.0476
22.4983
22.5484
22.193
21.8162
21.7938
21.8778
21.8745
22.4494
22.7378
20.3775
16.8575
14.9926
14.825
5.19853
5.54947
5.73607
5.72322
5.75198
6.0356
6.55378
6.92834
6.94265
6.81888
6.8442
7.06032
7.28648
7.4543
7.69757
8.10867
8.57921
9.05631
9.7659
10.7152
11.1874
10.6369
9.72505
9.45932
9.99936
10.8328
11.6364
12.199
12.2904
11.8968
11.3924
11.2263
11.2805
11.27
11.3493
10.7982
8.86511
6.67341
5.38423
4.99018
0.621445
0.658637
0.658924
0.566963
0.484968
0.568491
0.879065
1.23113
1.34802
1.233
1.08115
0.980904
0.906522
0.851694
0.87555
1.02519
1.20764
1.33042
1.68801
2.55661
3.2841
3.01794
2.12468
1.55774
1.64495
2.15004
2.79336
3.33847
3.5195
3.23975
2.75543
2.49312
2.46599
2.49222
2.768
2.89143
2.23679
1.27322
0.791557
0.652693
-0.111351
-0.216697
-0.344339
-0.43143
-0.429593
-0.325001
-0.0924651
0.229887
0.380602
0.219941
-0.0460079
-0.246878
-0.37864
-0.433301
-0.394417
-0.258245
-0.10646
-0.112226
-0.0899864
0.498447
1.26564
1.15919
0.266522
-0.443783
-0.548337
-0.231273
0.235028
0.657826
0.837447
0.67154
0.317407
0.108551
0.0982455
0.0789439
0.272646
0.600083
0.463948
0.0271616
-0.165728
-0.113993
-0.128401
-0.19143
-0.324332
-0.395585
-0.360773
-0.269073
-0.148967
0.0427726
0.218764
0.149615
-0.10969
-0.320999
-0.420908
-0.436751
-0.388628
-0.27743
-0.106317
-0.0673178
-0.234987
-0.0452499
0.633386
0.78466
0.0923568
-0.579777
-0.699575
-0.443305
-0.125446
0.116326
0.256573
0.243822
0.0781756
-0.0715356
-0.0991763
-0.15664
-0.134056
0.134498
0.19109
-0.0843346
-0.249891
-0.194339
-0.0929892
-0.0996675
-0.174477
-0.219148
-0.183881
-0.124231
-0.0779783
-0.00777733
0.107679
0.137723
-0.00718757
-0.186571
-0.271401
-0.276985
-0.236786
-0.164319
-0.0409944
0.0408444
-0.105949
-0.189391
0.230592
0.543318
0.147994
-0.366635
-0.436312
-0.228111
-0.0525059
0.0219923
0.0403365
0.0547489
0.0494301
0.0171849
0.019396
-0.0143995
-0.0969612
0.00982462
0.139248
0.0018972
-0.153706
-0.149379
-0.0533563
-0.0487241
-0.0769701
-0.0948794
-0.0736077
-0.0427264
-0.0296402
-0.017201
0.0324341
0.079835
0.0382318
-0.0675264
-0.141471
-0.154552
-0.12502
-0.082237
-0.0222238
0.0420449
-0.0178385
-0.131294
0.0474626
0.309243
0.121886
-0.195254
-0.212429
-0.0929076
-0.0210223
0.00469247
0.00548901
0.00115901
0.00300573
0.00106229
0.00745732
0.024836
-0.0209225
-0.0252927
0.0597526
0.0423949
-0.0492274
-0.0743758
-0.0241172
-0.0221373
-0.0310512
-0.0343989
-0.0250699
-0.0128242
-0.00984284
-0.0106556
0.0023627
0.0328336
0.029751
-0.0149719
-0.0622269
-0.0748098
-0.0575271
-0.0372418
-0.0153044
0.0218874
0.00719783
-0.0606542
0.00509559
0.15277
0.0668532
-0.096417
-0.0977106
-0.0374833
-0.00940715
-0.00291264
0.0011195
9.3021e-05
-2.03393e-05
-0.00112268
-0.00226493
0.00502326
0.002736
-0.0124739
0.0100937
0.0247136
-0.00466663
-0.0250426
-0.00786418
-0.00979096
-0.0129472
-0.0106346
-0.0073504
-0.00258074
-0.000410596
-0.00458676
-0.0023592
0.00965496
0.0144741
-0.00285197
-0.0243457
-0.0293501
-0.019731
-0.0121752
-0.0074132
0.0070534
0.00941448
-0.0220399
-0.00454308
0.0650484
0.0285595
-0.0453683
-0.040668
-0.0152525
-0.00509364
-0.00273943
-0.000155865
3.02438e-07
3.77644e-05
9.00608e-05
-0.000174257
-0.000163201
0.00186506
-0.00192508
-0.000552079
0.00784945
0.00262844
-0.00463466
-0.00260568
-0.00217364
-0.00238976
-0.00230179
-0.00197747
-0.000304629
-5.04036e-05
-8.78194e-05
-0.00272223
0.0027042
0.00411868
0.000256264
-0.00787053
-0.00756524
-0.00522964
-0.00293384
-0.00276167
-0.000148633
0.00221261
-0.00466956
-0.00440765
0.0223563
0.0106119
-0.0173861
-0.0145875
-0.00563141
-0.00294876
-0.000143991
-1.60006e-05
-1.15966e-06
-5.76331e-07
6.42881e-06
1.12255e-05
-2.6782e-05
9.37172e-05
5.88908e-05
-0.00256376
8.4719e-05
0.00266426
0.000142023
1.27433e-05
-0.00247135
-0.00269561
-0.000345337
-0.000108495
-2.37e-05
-6.865e-06
-3.74339e-05
-6.02957e-05
1.23355e-05
0.00120852
0.000115221
-0.00028181
-0.00281126
-0.00268692
-0.000113845
-8.98249e-05
-0.000112916
0.00255409
-2.84912e-05
-0.000507743
0.00599221
0.00243892
-0.00495247
-0.00506072
-0.00292818
-0.00015345
-5.80156e-06
-1.91132e-07
-2.57438e-09
5.2604e-09
-4.14764e-08
-1.02433e-07
2.4456e-07
-8.84574e-07
6.68553e-06
9.44744e-08
6.09599e-06
7.70064e-05
0.000115697
-2.62377e-05
-5.93873e-05
-7.75668e-05
-1.79246e-05
-1.49233e-06
-1.7405e-07
-4.69112e-08
4.44253e-07
-5.41031e-06
-4.31078e-06
5.66367e-07
-1.79955e-05
-6.5126e-05
-6.61106e-05
-2.00141e-05
-4.14435e-06
-3.16259e-08
-2.41431e-06
-1.76279e-05
3.94018e-06
-5.3485e-05
0.00260214
0.000208489
-0.000288692
-0.00268667
-0.000159571
-6.06903e-06
-2.18071e-07
-7.9462e-09
-3.11161e-10
-4.87148e-11
2.15209e-10
8.37929e-10
-1.97377e-09
5.73789e-09
-2.11003e-08
7.98082e-11
-2.24324e-08
7.31795e-07
-8.68047e-06
-1.1522e-07
-5.06436e-07
-9.13138e-07
-2.12388e-07
-1.6907e-08
-9.35358e-10
2.28624e-10
-3.59796e-09
2.88204e-08
2.19275e-08
3.68289e-10
-2.01969e-08
-3.97255e-07
-5.28964e-07
-1.48345e-07
-1.87894e-08
-1.1932e-09
6.4046e-09
1.63179e-07
3.88591e-07
-9.46005e-06
1.82959e-06
-1.59015e-05
-5.54935e-05
-3.31212e-05
-1.98784e-06
-7.94329e-08
-2.71297e-09
-8.85052e-11
-2.78533e-12
1.13687e-13
-7.95808e-13
-5.96856e-12
1.39266e-11
-3.13776e-11
6.12772e-11
1.60298e-11
-2.50566e-10
3.96318e-09
-3.01608e-08
-2.84672e-10
-2.94199e-09
-7.83217e-09
-1.77818e-09
-1.27613e-10
-4.94538e-12
-1.93268e-12
2.01226e-11
-1.17439e-10
-9.60654e-11
-1.02318e-11
6.83258e-11
-1.9345e-09
-4.17259e-09
-1.18916e-09
-1.22725e-10
-5.96856e-12
1.5973e-11
-8.19568e-10
-5.80991e-09
6.33464e-08
-9.11712e-10
-3.35414e-08
-3.76168e-07
-2.38292e-07
-1.76242e-08
-8.18773e-10
-3.25144e-11
-1.25056e-12
-5.68434e-14
0
0
0
5.68434e-14
1.7053e-13
-1.7053e-13
5.68434e-14
-1.36424e-12
1.74509e-11
-1.06013e-10
-5.68434e-14
-1.0175e-11
-4.58158e-11
-9.32232e-12
-5.68434e-13
0
0
-5.68434e-14
3.41061e-13
2.27374e-13
5.68434e-14
4.54747e-13
-7.84439e-12
-3.21734e-11
-1.02887e-11
-1.08002e-12
0
-1.13687e-13
8.52651e-13
3.29692e-11
-2.25896e-10
-9.9476e-12
-1.0516e-11
-2.2664e-09
-1.65193e-09
-1.58195e-10
-9.20863e-12
-3.41061e-13
0
-5.68434e-14
0
-1.13687e-13
-5.68434e-14
-5.68434e-14
5.68434e-14
0
-1.13687e-13
-5.68434e-14
5.68434e-14
-5.11591e-13
0
5.68434e-14
-1.7053e-13
-1.13687e-13
0
0
-5.68434e-14
5.68434e-14
5.68434e-14
0
0
0
-5.68434e-14
-2.27374e-13
-1.13687e-13
-5.68434e-14
0
0
5.68434e-14
-1.13687e-13
3.41061e-13
5.68434e-14
6.25278e-13
-1.35287e-11
-1.13687e-11
-1.36424e-12
0
0
5.68434e-14
-5.68434e-14
-5.68434e-14
0
0
0
0
1.13687e-13
0
-5.68434e-14
1.13687e-13
5.68434e-14
0
0
0
0
-1.13687e-13
-5.68434e-14
0
5.68434e-14
-5.68434e-14
0
5.68434e-14
-1.13687e-13
1.13687e-13
0
-5.68434e-14
0
0
0
0
0
5.68434e-14
0
-5.68434e-14
-5.68434e-14
0
5.68434e-14
0
5.68434e-14
0
0
0
0
0
0
0
-1.13687e-13
0
-5.68434e-14
-5.68434e-14
0
5.68434e-14
5.68434e-14
0
5.68434e-14
0
0
5.68434e-14
0
-5.68434e-14
5.68434e-14
0
0
0
0
0
0
-5.68434e-14
5.68434e-14
-5.68434e-14
5.68434e-14
0
0
0
5.68434e-14
-5.68434e-14
0
5.68434e-14
-5.68434e-14
0
0
-5.68434e-14
0
0
0
0
-5.68434e-14
0
0
0
0
0
5.68434e-14
0
5.68434e-14
0
5.68434e-14
0
0
0
0
5.68434e-14
0
0
0
5.68434e-14
5.68434e-14
0
0
5.68434e-14
-5.68434e-14
-5.68434e-14
0
0
0
1.13687e-13
-5.68434e-14
5.68434e-14
5.68434e-14
0
0
-1.13687e-13
0
0
-5.68434e-14
1.13687e-13
0
0
0
0
0
0
0
-5.68434e-14
-1.13687e-13
0
5.68434e-14
5.68434e-14
0
0
-5.68434e-14
5.68434e-14
0
-5.68434e-14
0
5.68434e-14
5.68434e-14
1.13687e-13
-5.68434e-14
-5.68434e-14
5.68434e-14
-5.68434e-14
5.68434e-14
-1.13687e-13
5.68434e-14
5.68434e-14
-5.68434e-14
5.68434e-14
-5.68434e-14
0
0
0
0
0
0
5.68434e-14
0
1.13687e-13
-1.13687e-13
5.68434e-14
5.68434e-14
0
-5.68434e-14
5.68434e-14
0
5.68434e-14
0
-1.13687e-13
0
5.68434e-14
5.68434e-14
5.68434e-14
5.68434e-14
-5.68434e-14
1.13687e-13
-5.68434e-14
1.13687e-13
0
-5.68434e-14
0
5.68434e-14
1.13687e-13
-5.68434e-14
5.68434e-14
0
0
-1.13687e-13
-1.13687e-13
0
-5.68434e-14
0
0
-5.68434e-14
5.68434e-14
5.68434e-14
-5.68434e-14
5.68434e-14
-5.68434e-14
1.13687e-13
-1.13687e-13
0
5.68434e-14
5.68434e-14
5.68434e-14
-5.68434e-14
0
5.68434e-14
5.68434e-14
5.68434e-14
5.68434e-14
0
0
5.68434e-14
0
0
5.68434e-14
1.13687e-13
5.68434e-14
5.68434e-14
0
5.68434e-14
0
0
5.68434e-14
0
0
5.68434e-14
5.68434e-14
-1.13687e-13
-5.68434e-14
5.68434e-14
-5.68434e-14
5.68434e-14
-1.7053e-13
0
0
0
0
-5.68434e-14
0
-5.68434e-14
5.68434e-14
0
-5.68434e-14
5.68434e-14
0
5.68434e-14
0
0
0
5.68434e-14
-5.68434e-14
5.68434e-14
-1.13687e-13
5.68434e-14
5.68434e-14
0
-5.68434e-14
0
0
5.68434e-14
0
5.68434e-14
-5.68434e-14
-5.68434e-14
0
0
5.68434e-14
-5.68434e-14
-5.68434e-14
5.68434e-14
-5.68434e-14
0
-5.68434e-14
-5.68434e-14
-5.68434e-14
0
5.68434e-14
5.68434e-14
-5.68434e-14
5.68434e-14
0
1.13687e-13
5.68434e-14
0
-5.68434e-14
0
-5.68434e-14
-5.68434e-14
5.68434e-14
5.68434e-14
5.68434e-14
-5.68434e-14
0
0
-5.68434e-14
0
0
5.68434e-14
0
-5.68434e-14
-5.68434e-14
5.68434e-14
5.68434e-14
-5.68434e-14
0
-5.68434e-14
5.68434e-14
0
0
0
0
-5.68434e-14
0
0
0
0
5.68434e-14
0
0
5.68434e-14
13.0993
13.0087
12.7407
12.5595
12.6
12.775
12.9551
13.0567
13.0642
12.9355
12.7102
12.492
12.3596
12.337
12.4211
12.5236
12.6348
12.8582
13.3094
13.9811
14.6069
14.5824
13.8239
13.2153
13.0902
13.1412
13.1502
12.9863
12.701
12.5279
12.668
13.1254
13.6934
14.2091
14.8067
15.3532
15.0921
14.118
13.3545
13.1034
15.9278
16.1005
16.2973
16.6577
17.2306
17.8663
18.3633
18.6116
18.7331
18.7736
18.7945
18.9
19.1701
19.591
20.0932
20.5482
20.9542
21.4575
22.1642
22.8906
23.235
22.7098
21.2455
19.9106
19.7051
20.1977
20.7032
20.9172
20.9013
20.9664
21.3667
22.0117
22.5023
22.5161
22.1986
21.5635
20.1338
18.235
16.6655
15.9391
5.72042
6.05921
6.34629
6.53716
6.81176
7.21884
7.61242
7.93405
8.18798
8.31551
8.31744
8.30559
8.44197
8.75647
9.16729
9.56964
9.93448
10.3256
10.9017
11.6122
12.0059
11.5819
10.3583
9.20484
9.14227
9.92963
10.6934
11.0251
10.9609
10.8174
10.9441
11.3543
11.6676
11.5593
11.0611
10.0965
8.63289
7.21676
6.28802
5.7395
0.98469
0.871241
0.85028
0.838396
0.883964
1.00987
1.18679
1.37633
1.55177
1.65975
1.63452
1.50769
1.40731
1.4
1.48042
1.60967
1.73345
1.80803
2.02778
2.67306
3.39366
3.47712
2.77475
1.97265
1.80633
2.25062
2.77716
2.98387
2.81509
2.50027
2.36643
2.5552
2.82346
2.90424
2.82243
2.52411
1.95139
1.37132
1.19036
1.18614
0.224791
-0.172166
-0.432975
-0.500515
-0.459777
-0.364261
-0.23967
-0.115431
-0.0222837
0.0274157
-0.0161665
-0.150341
-0.278043
-0.337827
-0.322171
-0.244586
-0.12809
-0.0802032
-0.0843334
0.312682
1.06586
1.29246
0.732033
0.0445217
-0.170077
0.0504291
0.34066
0.424504
0.264783
0.0344089
-0.0632592
0.0846279
0.343673
0.475422
0.486396
0.395418
0.179801
0.00952426
0.101338
0.33677
0.137926
-0.179262
-0.494931
-0.591218
-0.561318
-0.489039
-0.39724
-0.307731
-0.234448
-0.19452
-0.228543
-0.340833
-0.453843
-0.498582
-0.461387
-0.363765
-0.219201
-0.0749748
-0.116825
-0.147507
0.323192
0.72638
0.385297
-0.221454
-0.463828
-0.33128
-0.130475
-0.0719813
-0.15066
-0.237348
-0.258192
-0.181008
-0.031858
0.0802534
0.119482
0.0848812
-0.0574663
-0.166784
-0.0953347
0.104435
0.0795911
-0.0793122
-0.313302
-0.398623
-0.37931
-0.332359
-0.279889
-0.229776
-0.18187
-0.139977
-0.133371
-0.202291
-0.294747
-0.334842
-0.291462
-0.200377
-0.114973
-0.0247999
0.0173211
-0.0891688
-0.0287376
0.299428
0.283386
-0.0781387
-0.296916
-0.254704
-0.134063
-0.0796823
-0.0842661
-0.0838654
-0.0643352
-0.0433051
-0.00866415
0.0219812
0.0489856
0.0698433
0.00819743
-0.090809
-0.0819247
0.0271527
0.0392164
-0.0296465
-0.151701
-0.207477
-0.199662
-0.175356
-0.152854
-0.130139
-0.101791
-0.0737084
-0.0562472
-0.0724843
-0.118683
-0.147554
-0.1278
-0.0797268
-0.0449519
-0.022211
0.00899223
-0.00854843
-0.039717
0.073166
0.143717
0.00503614
-0.129149
-0.127675
-0.0747164
-0.0407554
-0.0278761
-0.0155073
-0.0050533
-0.00017694
0.00279178
0.00246595
0.00419189
0.0274595
0.0298478
-0.0191063
-0.0321422
0.0148914
0.0193758
-0.0130242
-0.0644062
-0.0895026
-0.0857105
-0.0748209
-0.0673133
-0.0581948
-0.0430923
-0.0275709
-0.0230352
-0.0253859
-0.0327916
-0.0377128
-0.0300251
-0.0197102
-0.0126165
-0.00738171
0.00243992
-0.000653205
-0.0123308
0.0171539
0.055089
0.00929408
-0.0499145
-0.0537223
-0.0335966
-0.0177671
-0.00993937
-0.00473718
-0.00022639
8.99212e-05
-5.77391e-05
0.000122778
-0.00192607
0.00257184
0.009467
-0.00216434
-0.00718249
0.0123868
0.00773961
-0.00699379
-0.0245543
-0.0306185
-0.0279377
-0.0245584
-0.0224187
-0.017821
-0.0126222
-0.00719873
-0.00521663
-0.00722691
-0.00739232
-0.00510482
-0.0030704
-0.0027884
-0.00292253
-0.00302774
0.00246275
-0.000704092
-0.00388825
0.0053785
0.0189482
0.00344157
-0.0176677
-0.02042
-0.0127765
-0.00731041
-0.0048162
-0.00281614
-0.000234478
-7.70783e-05
-3.49735e-05
-1.74072e-05
-4.71267e-05
-8.47027e-05
0.00278032
-0.000222863
-0.000517652
0.00802856
0.00240766
-0.00194593
-0.00722671
-0.00748656
-0.00807336
-0.00538488
-0.00519894
-0.00492244
-0.00223809
-0.00274759
-0.00256384
-0.0027727
-0.0027663
-0.000187967
-3.06177e-06
-1.62183e-05
-3.42652e-05
-2.77572e-05
3.33918e-05
0.000128553
-0.00269989
0.00247849
0.00533437
-0.000378152
-0.00747091
-0.00802171
-0.00414044
-0.0020953
-0.0027282
-0.000155993
-3.02335e-06
4.95797e-07
3.41736e-07
2.4207e-06
-4.81413e-05
2.19774e-05
0.000111577
-0.000175119
-0.000247517
0.00308967
0.00271424
-0.000150716
-0.00203664
-0.00201457
-0.00135715
-0.00027885
-0.00260298
-0.000202977
-0.000116846
-6.39888e-05
-2.91975e-05
-4.09142e-05
-4.66781e-05
-1.52247e-05
4.77474e-06
5.82498e-06
9.59491e-07
-5.25261e-06
-1.11517e-05
3.19491e-05
-0.000143859
0.00101908
0.00277322
5.97601e-05
-0.00176927
-0.00190138
-0.00272821
-0.000199877
-1.41729e-05
-3.5807e-07
3.75934e-09
-5.17593e-09
-2.84587e-09
-5.90551e-08
6.63737e-07
-4.94277e-06
3.0341e-07
1.71227e-06
-0.000102667
0.0024736
7.04366e-05
-0.00012285
-0.000246735
-0.000120486
-5.45799e-05
-3.56296e-05
-1.68471e-05
-4.60817e-06
-1.0485e-06
-8.57586e-08
-4.08889e-08
-1.51636e-07
-4.109e-07
-2.22324e-07
1.58584e-08
2.52492e-08
-9.66338e-12
2.22132e-08
2.07178e-07
-3.0594e-07
-2.25879e-06
1.837e-05
9.61408e-05
-2.46409e-05
-0.000168878
-0.000112256
-2.75667e-05
-1.75626e-06
-7.69294e-08
-2.22468e-09
-1.49214e-10
5.49107e-11
1.68257e-11
1.00897e-09
-7.07604e-09
2.50148e-08
-7.06564e-09
1.63172e-07
-3.27381e-06
5.92958e-05
-7.09646e-06
-2.70235e-05
-1.7658e-05
-1.90584e-06
-3.9086e-07
-1.21789e-07
-2.68552e-08
-1.80597e-09
5.76506e-10
8.47535e-11
8.01492e-12
-1.85594e-10
-2.70569e-09
-2.45109e-09
-6.03677e-11
1.04535e-10
1.25056e-11
1.08002e-12
-2.38458e-09
-4.42299e-10
5.41429e-08
-9.75489e-08
-4.09015e-07
-1.33934e-05
-1.06158e-05
-1.24554e-06
-1.71915e-07
-1.04299e-08
-3.70051e-10
-7.10543e-12
1.02318e-12
-6.25278e-13
0
-1.42677e-11
6.74163e-11
-1.18519e-10
-1.25283e-10
2.57722e-09
-4.52399e-08
6.7353e-07
-3.96114e-08
-2.76332e-07
-2.00555e-07
-2.32243e-08
-2.30057e-09
-1.53022e-10
1.74509e-11
3.35376e-12
-6.82121e-13
-5.68434e-14
0
4.54747e-13
-1.35287e-11
-2.21689e-11
-1.87583e-12
3.41061e-13
1.13687e-13
-8.52651e-13
1.49498e-11
3.85398e-11
-5.38876e-10
1.50521e-10
2.76981e-09
-7.4433e-08
-8.10099e-08
-1.12539e-08
-1.16052e-09
-6.35509e-11
-2.04636e-12
-5.68434e-14
5.68434e-14
5.68434e-14
5.68434e-14
2.27374e-13
-5.68434e-13
6.25278e-13
-1.13687e-12
2.71712e-11
-4.39115e-10
5.45901e-09
-1.51601e-10
-2.16312e-09
-1.6023e-09
-1.78431e-10
-1.04023e-11
-2.27374e-13
-1.13687e-13
-5.68434e-14
5.68434e-14
0
5.68434e-14
0
-5.68434e-14
-1.13687e-13
-5.68434e-14
0
-5.68434e-14
-5.68434e-14
-5.68434e-14
-3.41061e-13
3.29692e-12
-1.47793e-12
2.37605e-11
-4.07567e-10
-6.12943e-10
-1.00215e-10
-9.26548e-12
-4.54747e-13
1.13687e-13
0
5.68434e-14
0
-5.68434e-14
-5.68434e-14
-5.68434e-14
-5.68434e-14
-1.13687e-13
2.84217e-13
-3.58114e-12
3.64366e-11
-2.27374e-13
-1.42677e-11
-9.72022e-12
-1.02318e-12
0
0
0
5.68434e-14
5.68434e-14
5.68434e-14
5.68434e-14
0
-5.68434e-14
5.68434e-14
0
5.68434e-14
-5.68434e-14
0
0
5.68434e-14
-5.68434e-14
-1.13687e-13
1.13687e-13
-2.21689e-12
-4.54747e-12
-8.52651e-13
0
0
0
0
-1.13687e-13
0
0
-5.68434e-14
0
-1.13687e-13
-5.68434e-14
-5.68434e-14
0
2.84217e-13
5.68434e-14
-1.7053e-13
-5.68434e-14
0
0
-5.68434e-14
5.68434e-14
0
5.68434e-14
0
-5.68434e-14
-1.13687e-13
-5.68434e-14
0
0
0
0
0
0
0
0
-5.68434e-14
-5.68434e-14
0
0
0
0
-5.68434e-14
0
0
5.68434e-14
-5.68434e-14
-5.68434e-14
0
5.68434e-14
-5.68434e-14
0
-5.68434e-14
5.68434e-14
0
5.68434e-14
0
-5.68434e-14
-1.13687e-13
0
-5.68434e-14
0
0
5.68434e-14
0
5.68434e-14
-5.68434e-14
-5.68434e-14
5.68434e-14
-5.68434e-14
0
5.68434e-14
0
0
5.68434e-14
0
5.68434e-14
0
0
-5.68434e-14
0
0
0
0
-5.68434e-14
0
0
5.68434e-14
0
-5.68434e-14
5.68434e-14
0
0
-5.68434e-14
0
0
0
5.68434e-14
-5.68434e-14
-5.68434e-14
5.68434e-14
0
0
5.68434e-14
0
0
5.68434e-14
0
5.68434e-14
-5.68434e-14
0
0
0
5.68434e-14
0
-1.13687e-13
0
-5.68434e-14
-5.68434e-14
0
0
5.68434e-14
-5.68434e-14
0
5.68434e-14
0
0
5.68434e-14
1.13687e-13
1.13687e-13
0
0
0
0
-5.68434e-14
-5.68434e-14
-1.13687e-13
-5.68434e-14
0
0
5.68434e-14
0
-1.13687e-13
5.68434e-14
-5.68434e-14
5.68434e-14
5.68434e-14
-5.68434e-14
0
0
0
0
-5.68434e-14
5.68434e-14
5.68434e-14
0
0
0
0
5.68434e-14
-5.68434e-14
5.68434e-14
0
5.68434e-14
0
-1.13687e-13
-1.13687e-13
-5.68434e-14
0
-5.68434e-14
-1.13687e-13
0
0
1.13687e-13
1.13687e-13
5.68434e-14
-1.13687e-13
0
-1.13687e-13
0
0
0
-5.68434e-14
0
-5.68434e-14
0
-5.68434e-14
5.68434e-14
-5.68434e-14
-5.68434e-14
0
0
0
-5.68434e-14
0
-5.68434e-14
-1.13687e-13
1.13687e-13
0
0
5.68434e-14
-1.13687e-13
5.68434e-14
5.68434e-14
-5.68434e-14
5.68434e-14
-1.13687e-13
0
-5.68434e-14
-5.68434e-14
5.68434e-14
-1.13687e-13
0
-1.13687e-13
0
-5.68434e-14
0
-5.68434e-14
-5.68434e-14
-5.68434e-14
5.68434e-14
5.68434e-14
0
0
5.68434e-14
-5.68434e-14
5.68434e-14
5.68434e-14
-5.68434e-14
0
0
-5.68434e-14
0
-1.13687e-13
0
5.68434e-14
0
-5.68434e-14
0
5.68434e-14
0
-5.68434e-14
5.68434e-14
0
0
0
0
5.68434e-14
-5.68434e-14
0
0
-5.68434e-14
-1.13687e-13
0
-5.68434e-14
5.68434e-14
5.68434e-14
5.68434e-14
0
0
0
-5.68434e-14
0
0
0
1.13687e-13
5.68434e-14
0
0
-5.68434e-14
5.68434e-14
-5.68434e-14
5.68434e-14
0
-5.68434e-14
-5.68434e-14
0
-5.68434e-14
0
5.68434e-14
0
0
5.68434e-14
0
5.68434e-14
0
0
-1.13687e-13
-5.68434e-14
5.68434e-14
0
5.68434e-14
0
0
-5.68434e-14
5.68434e-14
5.68434e-14
0
0
-1.13687e-13
-5.68434e-14
-1.13687e-13
0
-5.68434e-14
-5.68434e-14
5.68434e-14
-5.68434e-14
0
0
-1.13687e-13
5.68434e-14
0
0
0
-5.68434e-14
-5.68434e-14
0
-1.13687e-13
0
-5.68434e-14
-5.68434e-14
5.68434e-14
0
0
-5.68434e-14
5.68434e-14
0
0
-5.68434e-14
5.68434e-14
0
5.68434e-14
-5.68434e-14
-1.13687e-13
0
12.8161
13.0592
13.3367
13.4211
13.3372
13.2107
13.1209
13.0942
13.153
13.2581
13.2439
13.0601
12.7839
12.5281
12.3647
12.3136
12.3387
12.4415
12.7193
13.2237
13.8334
14.4355
14.5876
14.0834
13.544
13.192
12.9278
12.7353
12.6058
12.6162
12.8674
13.3717
13.9173
14.2154
14.2448
14.1629
13.898
13.4579
13.0609
12.822
19.223
19.7748
20.3152
20.505
20.3753
20.0956
19.7996
19.6023
19.5947
19.7705
19.9653
20.0922
20.1455
20.198
20.3245
20.5609
20.8596
21.1767
21.6284
22.317
22.9248
23.1233
22.5092
20.905
19.3171
18.647
18.7152
19.1152
19.6131
20.1968
20.841
21.4419
21.7283
21.5002
20.9691
20.4731
19.989
19.4931
19.1244
19.0027
8.92917
9.70788
10.2838
10.4077
10.22
9.91117
9.56516