/*--------------------------------*- C++ -*----------------------------------*\
| =========                 |                                                 |
| \\      /  F ield         | OpenFOAM: The Open Source CFD Toolbox           |
|  \\    /   O peration     | Version:  5.0                                   |
|   \\  /    A nd           | Web:      www.OpenFOAM.org                      |
|    \\/     M anipulation  |                                                 |
\*---------------------------------------------------------------------------*/
FoamFile
{
    version     2.0;
    format      ascii;
    class       volScalarField;
    location    "50.4676134421789371";
    object      TPrimeMean;
}
// * * * * * * * * * * * * * * * * * * * * * * * * * * * * * * * * * * * * * //

dimensions      [0 0 0 1 0 0 0];

internalField   nonuniform List<scalar> 
60000
(
11.0036
11.0721
11.0047
10.6183
10.0528
9.86823
10.0895
10.2554
10.3232
10.4678
10.7049
10.9072
10.954
10.8451
10.7243
10.717
10.8047
10.9058
10.9079
10.8186
10.6467
10.505
10.5249
10.6877
10.9672
11.2817
11.6554
12.1353
12.4835
12.2635
11.5587
10.9462
10.7508
11.0519
11.6767
11.883
11.2552
10.6741
10.6518
10.8436
13.1901
13.0534
12.7067
12.061
11.2623
10.8625
11.0343
11.4132
11.8353
12.42
13.0677
13.443
13.3794
12.9631
12.561
12.6113
13.1534
13.8643
14.3131
14.4947
14.5395
14.583
14.8641
15.348
15.9232
16.4726
17.0284
17.6158
17.9442
17.5458
16.5261
15.5708
15.0779
15.0934
15.4033
15.2439
14.1574
13.074
12.8429
13.0709
4.94728
4.97514
4.79715
4.35679
3.81352
3.50307
3.52227
3.68937
3.90819
4.29192
4.81266
5.17053
5.12088
4.729
4.3022
4.16113
4.46091
5.08029
5.67223
5.90053
5.88235
5.86262
5.98922
6.19612
6.37457
6.57048
6.95924
7.59568
8.12179
8.05155
7.43193
6.76461
6.3745
6.32957
6.50527
6.33157
5.58882
4.85857
4.61407
4.76903
0.818146
0.834062
0.783298
0.637366
0.444053
0.333405
0.377888
0.490914
0.560691
0.652918
0.793486
0.867194
0.771254
0.544789
0.329007
0.251679
0.428975
0.897658
1.4839
1.71919
1.45737
1.07454
0.810315
0.687245
0.689804
0.770346
0.964425
1.43481
2.02117
2.22917
1.93971
1.49148
1.1662
1.08168
1.27476
1.39498
1.14676
0.802957
0.682625
0.745942
0.0532243
0.00368234
-0.0579057
-0.100204
-0.141922
-0.170579
-0.136245
-0.0411299
0.0268344
0.0684319
0.132223
0.116081
-0.0699463
-0.297845
-0.425091
-0.420231
-0.263816
0.115449
0.700159
1.05138
0.728803
0.0470119
-0.478159
-0.663047
-0.538756
-0.314833
-0.184688
0.01989
0.46913
0.761639
0.606634
0.248618
-0.0393395
-0.152358
-0.0137275
0.193821
0.153815
-0.0206161
-0.0646855
0.0160153
-0.0435648
-0.0625844
-0.104338
-0.120879
-0.128554
-0.147287
-0.144257
-0.0979561
-0.0487073
-0.024558
0.0172568
0.0412652
-0.0630856
-0.24711
-0.35268
-0.347951
-0.287612
-0.102029
0.369525
0.825365
0.668071
-0.029451
-0.641942
-0.791075
-0.544113
-0.223631
-0.0869877
-0.124854
-0.00331712
0.285693
0.33289
0.110301
-0.128607
-0.25289
-0.212056
-0.0566642
-0.0114425
-0.105724
-0.151787
-0.0970889
-0.0357852
-0.0329447
-0.0487622
-0.0533185
-0.0507507
-0.0614639
-0.0742899
-0.0624983
-0.0376362
-0.0208945
0.00082008
0.0248281
-0.00491846
-0.0902348
-0.153914
-0.156641
-0.163329
-0.15216
0.131847
0.592799
0.604642
0.0277733
-0.536586
-0.5872
-0.307085
-0.0999338
-0.00152529
-0.000492807
-0.0596914
0.00076458
0.120772
0.113039
-0.000134109
-0.101116
-0.125759
-0.0738648
-0.0247278
-0.0467484
-0.0793633
-0.066506
-0.0173802
-0.0147606
-0.0174493
-0.0166267
-0.010053
-0.00958802
-0.0184704
-0.0224811
-0.0160361
-0.00764858
0.00464742
0.0171016
0.00520956
-0.0315009
-0.0575412
-0.0468752
-0.0506824
-0.118507
-0.0256019
0.343618
0.454703
0.0347922
-0.368403
-0.337802
-0.141382
-0.0416966
-0.0157139
0.00677693
0.00464847
-0.0155957
-0.000284031
0.0338017
0.0341059
-0.000675848
-0.0319761
-0.0345
-0.0194015
-0.0151587
-0.0231084
-0.0245805
-0.00525261
-0.00511553
-0.0053074
-0.00445936
-0.00189617
0.000128824
-0.000472513
-0.00350811
-0.00458067
-0.00186492
0.00474798
0.0118224
0.00528067
-0.0151168
-0.026443
-0.0125379
0.000442626
-0.0535365
-0.0697672
0.141782
0.269849
0.0242535
-0.207009
-0.169579
-0.0667804
-0.0161872
-0.00370829
-0.00274076
0.00220985
0.0011627
-0.00341936
-0.00129663
0.00648658
0.00881143
0.000749635
-0.00737244
-0.00785307
-0.00535621
-0.00509468
-0.00614291
-0.00123409
-0.00162867
-0.00153354
-0.00106378
-0.00103959
-7.5112e-05
2.52079e-05
-9.05773e-05
-0.00104412
-0.00115772
0.00216828
0.00664188
0.00293831
-0.00645923
-0.0120738
-0.00553287
0.00683242
-0.00894835
-0.0411565
0.0336252
0.122301
0.0170145
-0.0962763
-0.0756834
-0.0278622
-0.0067582
-0.00123253
-6.47386e-05
-0.00102263
0.000172054
0.000171315
-0.000243002
-0.00104022
0.000536946
0.00163618
0.000110073
-0.00152797
-0.00160588
-0.00127686
-0.0010535
-4.92672e-05
-0.000213102
-0.000259246
-0.000139577
-2.57708e-05
-6.61861e-06
4.75107e-05
7.51492e-05
-0.000119149
-0.000238953
0.000212185
0.00218445
0.0011131
-0.00216193
-0.00450048
-0.00278397
0.00164639
0.00204594
-0.0106382
0.00146339
0.0398928
0.0103457
-0.0348083
-0.027958
-0.00934451
-0.00189683
-0.00102246
-5.74946e-05
-3.58142e-06
-1.24813e-05
1.32861e-05
9.3615e-06
-5.86698e-06
-1.6976e-05
9.71534e-06
-2.02471e-06
-4.79113e-06
-8.12482e-05
-6.2177e-05
4.56274e-05
-1.92464e-05
-3.46816e-05
-3.30093e-05
-8.09048e-06
-7.45866e-07
-5.10488e-08
-1.72296e-07
1.67119e-06
8.59608e-06
-5.6943e-05
-9.79917e-06
0.00108698
0.000137279
-0.00115187
-0.00116838
-0.00104139
-0.000107163
0.000601117
-0.00147282
-0.0011804
0.00862953
0.00441932
-0.00901024
-0.00799649
-0.00301505
-0.00107586
-2.22579e-05
-2.61346e-07
3.0266e-08
9.1957e-08
-6.7732e-08
-5.27912e-08
2.7577e-08
8.65424e-08
-2.78763e-08
-4.76943e-08
2.16845e-07
-4.32296e-06
-8.33106e-07
-1.26298e-06
-1.03619e-07
-4.20208e-07
-5.58457e-07
-1.42571e-07
-1.25312e-08
-7.79392e-10
-9.5031e-11
7.08091e-09
-2.15533e-07
3.46604e-06
-6.19692e-05
8.9091e-05
9.09692e-05
-0.000151166
-9.75558e-05
-1.30447e-05
4.83971e-05
6.41829e-05
-7.58712e-05
-0.00102456
0.00152461
0.00137319
-0.00166365
-0.00157321
-0.00106687
-4.16134e-05
-1.5908e-06
-6.44308e-08
-2.90031e-09
-5.38728e-10
2.1505e-10
2.13891e-10
-9.22567e-11
-3.62479e-10
5.50699e-11
1.17893e-10
8.04437e-10
-1.0752e-08
-1.00061e-08
3.19386e-08
-3.86537e-11
-3.50134e-09
-6.6484e-09
-1.69167e-09
-1.51238e-10
-9.0836e-12
2.70574e-12
-5.42059e-11
7.43512e-10
-4.22006e-09
-7.58691e-08
3.0855e-06
-1.35198e-05
-1.32317e-05
-1.61906e-06
-1.63252e-07
7.01202e-10
2.30893e-06
9.02053e-06
-1.01056e-05
-1.40284e-05
5.78716e-06
-6.40129e-05
-4.59494e-05
-5.36012e-06
-1.79121e-07
-1.86092e-09
1.58377e-10
1.47111e-11
1.84173e-12
-4.3201e-13
-6.70752e-13
1.7053e-13
1.33014e-12
-1.47793e-13
-4.09273e-13
1.1596e-12
-1.47224e-11
-7.60677e-11
2.79761e-10
3.70619e-12
-1.55637e-11
-4.87489e-11
-1.29034e-11
-1.26192e-12
-1.36424e-13
-2.27374e-14
1.02318e-13
-1.96678e-12
1.73373e-11
-2.39049e-10
7.59074e-09
-7.51602e-08
-1.35907e-07
-2.34918e-08
-2.3888e-09
-2.8906e-10
1.87456e-09
-4.56895e-08
7.10735e-08
7.4892e-08
5.44456e-09
-2.16895e-07
-2.27555e-07
-2.62676e-08
-1.28182e-09
-5.53996e-11
-2.60343e-12
-1.36424e-13
-2.27374e-14
-9.09494e-14
-4.54747e-14
-6.82121e-14
4.54748e-14
-5.68434e-14
-7.95808e-14
-1.47793e-13
0
-4.20641e-13
1.11414e-12
-2.27374e-14
2.27374e-14
-1.25055e-13
3.4106e-14
4.54747e-14
1.13687e-14
-3.4106e-14
7.95808e-14
-2.27373e-14
3.4106e-14
-2.27374e-13
1.70075e-11
-2.88856e-10
-1.24702e-09
-3.11547e-10
-3.60046e-11
-2.66027e-12
-6.27554e-12
1.66551e-10
-3.48029e-10
-2.71689e-10
3.19688e-11
-7.32382e-10
-1.15249e-09
-1.70552e-10
-1.18916e-11
-5.79803e-13
-9.09494e-14
7.95805e-14
-4.54748e-14
-1.02318e-13
3.4106e-14
-2.27373e-14
1.02318e-13
3.62278e-20
5.68434e-14
6.82121e-14
-2.27374e-14
2.27374e-14
1.13687e-14
1.13687e-14
-4.54747e-14
-3.4106e-14
-1.13687e-14
-3.77216e-21
4.54747e-14
-1.13686e-14
6.82124e-14
4.54747e-14
4.54747e-14
1.13687e-14
4.54748e-14
-6.48015e-13
-1.02091e-11
-3.64935e-12
-4.54747e-13
2.27374e-14
1.13686e-14
-4.77485e-13
1.14823e-12
6.70753e-13
1.93268e-13
-3.02407e-12
-6.90079e-12
-1.29603e-12
-1.59162e-13
-4.54747e-14
-5.68434e-14
-3.4106e-14
1.13687e-14
-5.68434e-14
2.27373e-14
-6.82122e-14
-7.9581e-14
-1.13687e-14
-1.13687e-14
6.82121e-14
-6.82121e-14
2.27374e-14
3.4106e-14
3.4106e-14
1.13687e-14
-2.27374e-14
5.68434e-14
5.68434e-14
5.68434e-14
-5.68434e-14
-3.4106e-14
1.13687e-14
0
3.4106e-14
-3.4106e-14
-2.27373e-14
-1.47793e-13
-3.41061e-14
4.54747e-14
-9.09488e-14
2.27374e-14
1.13687e-14
-1.13687e-14
3.4106e-14
1.13687e-14
-2.27373e-14
-4.54748e-14
-4.54747e-14
2.27373e-14
0
-5.68434e-14
1.13687e-14
1.13686e-14
-3.4106e-14
-3.4106e-14
1.13686e-14
1.13686e-14
0
3.4106e-14
4.54747e-14
-1.13687e-14
-2.27373e-14
1.13686e-14
2.27373e-14
-2.27374e-14
2.27374e-14
3.4106e-14
4.54747e-14
2.27374e-14
-5.68434e-14
1.13687e-14
3.4106e-14
-3.4106e-14
6.82121e-14
1.13687e-14
-1.13686e-14
-1.13686e-14
2.27373e-14
-6.82121e-14
-1.13686e-14
-3.62278e-20
1.13686e-14
5.68434e-14
6.82121e-14
5.68434e-14
5.68434e-14
2.27374e-14
4.54748e-14
-5.68434e-14
1.02318e-13
-3.4106e-14
5.68434e-14
2.27373e-14
3.4106e-14
4.54747e-14
-2.27374e-14
5.68434e-14
5.68434e-14
-4.54747e-14
9.09497e-14
1.13686e-14
-3.4106e-14
2.27374e-14
-3.62278e-20
-1.13686e-14
2.27373e-14
4.37722e-20
4.54748e-14
4.54747e-14
7.95808e-14
3.4106e-14
0
-4.54747e-14
6.82121e-14
-9.09496e-14
6.82121e-14
6.82121e-14
9.09495e-14
-5.68434e-14
0
0
-1.13686e-14
3.4106e-14
-4.37722e-20
-1.13687e-14
2.27373e-14
1.13687e-14
2.27373e-14
-5.68434e-14
-6.82121e-14
-2.27374e-14
-5.68434e-14
-5.68434e-14
2.27374e-14
0
0
-6.82121e-14
-3.4106e-14
3.4106e-14
-3.4106e-14
6.82121e-14
2.27374e-14
2.27374e-14
3.4106e-14
-7.9581e-14
-1.13686e-14
-2.27374e-14
4.54748e-14
1.02318e-13
-2.27373e-14
4.54747e-14
5.68434e-14
3.4106e-14
-2.27374e-14
-4.54747e-14
-3.4106e-14
-5.68434e-14
-2.27374e-14
-1.13687e-14
-4.37722e-20
2.27374e-14
1.13686e-14
-3.41061e-14
0
-2.27373e-14
7.95809e-14
-1.13687e-14
-4.54748e-14
-7.95808e-14
-1.13687e-14
-4.54747e-14
-2.27373e-14
-1.13686e-13
4.37722e-20
2.27374e-14
2.27374e-14
-1.13686e-14
-5.68434e-14
-4.54747e-14
-3.4106e-14
-5.68434e-14
3.4106e-14
-1.02318e-13
2.27374e-14
-4.54747e-14
-2.27374e-14
-1.13686e-14
3.62278e-20
3.62278e-20
-3.4106e-14
1.13687e-14
1.13686e-14
-7.95809e-14
-5.68434e-14
-3.4106e-14
-2.27374e-14
4.54747e-14
3.41061e-14
-3.77216e-21
3.62278e-20
-1.13686e-14
-1.13687e-14
-4.37722e-20
-3.4106e-14
-3.4106e-14
4.54747e-14
1.13686e-14
3.4106e-14
6.82121e-14
-1.13687e-14
-4.54747e-14
-1.13687e-14
-1.13687e-14
0
-2.27374e-14
2.27374e-14
-5.68434e-14
-5.68434e-14
-5.68434e-14
-2.27374e-14
3.4106e-14
1.13687e-14
4.54748e-14
-4.37722e-20
4.54747e-14
-4.54748e-14
0
2.27374e-14
-1.13687e-14
2.27373e-14
-3.4106e-14
0
-4.54747e-14
3.4106e-14
-3.41061e-14
-2.27374e-14
4.37722e-20
1.13686e-14
6.82121e-14
-1.13686e-14
-5.68434e-14
-2.27374e-14
-3.4106e-14
1.13687e-14
5.68434e-14
-3.4106e-14
-3.62278e-20
-3.4106e-14
4.37722e-20
5.68434e-14
2.27374e-14
2.27373e-14
2.27374e-14
-2.27374e-14
5.68434e-14
5.68434e-14
-1.13687e-14
1.13687e-14
-2.27373e-14
9.09496e-14
0
-4.54747e-14
-5.68434e-14
4.37722e-20
-4.54748e-14
-2.27374e-14
4.54747e-14
2.27374e-14
2.27374e-14
-4.54747e-14
-1.02318e-13
-1.13687e-14
0
0
-1.13687e-14
-4.54747e-14
3.41061e-14
-1.13687e-14
-2.27374e-14
-2.27374e-14
5.68434e-14
-1.13687e-14
-1.13687e-14
-7.54432e-21
1.13686e-14
-4.54747e-14
3.4106e-14
4.54747e-14
4.54747e-14
7.95808e-14
-3.4106e-14
2.27374e-14
-4.54747e-14
-1.13687e-14
-3.4106e-14
-1.13686e-14
5.68434e-14
2.27374e-14
-3.4106e-14
3.4106e-14
1.13686e-14
2.27374e-14
1.13686e-14
1.13687e-14
-3.62278e-20
2.27373e-14
4.37722e-20
-3.4106e-14
1.13687e-14
3.4106e-14
4.54747e-14
-2.27374e-14
-1.13686e-13
-1.13687e-14
0
-2.27374e-14
-5.68434e-14
-2.27373e-14
4.54747e-14
-3.62278e-20
-5.68434e-14
-1.13686e-14
-1.13687e-14
-3.4106e-14
-7.9581e-14
-7.95809e-14
4.54747e-14
-4.54747e-14
0
2.27373e-14
-3.4106e-14
-3.4106e-14
-1.13686e-14
-2.27373e-14
3.4106e-14
-2.27374e-14
5.68435e-14
-9.09496e-14
-5.68434e-14
4.54747e-14
1.13687e-14
0
-2.27374e-14
10.0733
10.0867
9.94178
9.81735
9.95892
10.3109
10.6754
10.8171
10.6201
10.4103
10.3661
10.428
10.5357
10.6548
10.7929
10.97
11.1856
11.4491
11.7734
11.9787
11.7455
11.1841
10.7897
10.7182
10.8762
11.1586
11.4251
11.5562
11.4743
11.2529
11.1279
11.2001
11.3164
11.589
12.5042
13.128
11.8349
10.3397
9.99331
10.0137
10.573
10.8306
10.9215
11.0305
11.4014
11.9838
12.5542
12.7861
12.5838
12.3737
12.4715
12.8139
13.2108
13.5976
14.0387
14.5506
15.0699
15.583
16.1629
16.6383
16.5058
15.7305
15.0454
15.0053
15.4857
16.1271
16.673
16.9593
16.9146
16.6413
16.4589
16.5638
16.6619
16.5483
16.6324
16.2404
14.0265
11.498
10.3189
10.2749
3.22271
3.4381
3.54457
3.52443
3.53989
3.73833
4.09
4.32896
4.32519
4.23795
4.2498
4.37414
4.50063
4.60192
4.76952
5.05055
5.36859
5.70473
6.2233
6.88085
7.13243
6.66902
6.04252
5.92569
6.34266
6.93631
7.49536
7.85832
7.8707
7.56183
7.2192
7.13686
7.20054
7.22267
7.26244
6.78588
5.45108
4.06906
3.30774
3.08733
0.301613
0.307332
0.290911
0.226506
0.183424
0.258094
0.477825
0.70655
0.764456
0.670097
0.559476
0.480163
0.419861
0.38432
0.40706
0.507121
0.616651
0.693257
0.959852
1.55727
1.98412
1.72501
1.11425
0.76879
0.851114
1.19722
1.62287
1.95557
2.02641
1.80725
1.49228
1.35066
1.35159
1.37782
1.568
1.62969
1.19784
0.635088
0.397111
0.330585
-0.0998692
-0.180592
-0.268358
-0.319799
-0.307693
-0.226237
-0.0595281
0.157522
0.239849
0.111938
-0.0728341
-0.207992
-0.292615
-0.319389
-0.282227
-0.183852
-0.0853755
-0.0968961
-0.0562943
0.37751
0.855287
0.695989
0.0665742
-0.375557
-0.404199
-0.16592
0.15575
0.4246
0.509058
0.368777
0.133308
0.0156409
0.0220349
0.0140836
0.151286
0.351237
0.235921
-0.0385165
-0.135285
-0.0909333
-0.0913832
-0.1422
-0.230321
-0.269771
-0.239439
-0.175055
-0.092199
0.0395066
0.148569
0.0852119
-0.0946785
-0.231781
-0.291986
-0.295746
-0.257787
-0.176819
-0.0629474
-0.0518976
-0.161805
0.00708426
0.461938
0.494129
-0.00537696
-0.424642
-0.465229
-0.277783
-0.0649838
0.0911511
0.172491
0.148912
0.0333512
-0.0597526
-0.0727849
-0.111507
-0.0851214
0.0940283
0.109325
-0.0769248
-0.171915
-0.12766
-0.0618899
-0.0724287
-0.122831
-0.146523
-0.11893
-0.0789159
-0.0491107
-0.000307922
0.0766396
0.0870342
-0.0177693
-0.134509
-0.185643
-0.183692
-0.154017
-0.10254
-0.0185471
0.0251158
-0.0839398
-0.112877
0.189754
0.355653
0.0548607
-0.266562
-0.281694
-0.138313
-0.0273233
0.0176981
0.0283719
0.0367646
0.0316376
0.0097033
0.0111269
-0.0151327
-0.0654342
0.0151057
0.0894082
-0.0111046
-0.106567
-0.0970548
-0.0348497
-0.034175
-0.053103
-0.0622428
-0.0468594
-0.0266259
-0.0190344
-0.00968099
0.0249721
0.053335
0.0197266
-0.0519522
-0.097261
-0.101408
-0.0801331
-0.051517
-0.00967472
0.0281964
-0.0206778
-0.0864668
0.0549458
0.208923
0.0549699
-0.142122
-0.134495
-0.0551068
-0.0109673
0.00397327
0.00373102
0.000892031
0.00239345
0.000811649
0.00642289
0.0151959
-0.0167303
-0.0133397
0.0416306
0.0226273
-0.036657
-0.049293
-0.0158396
-0.0154038
-0.0210887
-0.0223887
-0.0158696
-0.00816858
-0.00608725
-0.0071275
0.00344476
0.022727
0.0182632
-0.0137211
-0.0433389
-0.0485684
-0.0361986
-0.0231476
-0.00733129
0.0155276
0.000201894
-0.0415104
0.0149867
0.104742
0.0300978
-0.0703659
-0.060848
-0.0223462
-0.00504949
-0.00117755
0.000838441
8.34451e-05
-2.59611e-05
-0.000751078
-0.00170744
0.00408586
0.000639793
-0.00841923
0.00809495
0.0153174
-0.00450775
-0.0169264
-0.00502185
-0.00658218
-0.00814712
-0.0068678
-0.00465345
-0.00191481
-0.00069242
-0.00277034
-0.00123422
0.00688084
0.0090208
-0.00338339
-0.0167998
-0.0189684
-0.0122964
-0.00716414
-0.0039755
0.00548066
0.00428054
-0.0162441
0.0023068
0.0451395
0.0123523
-0.0322961
-0.025527
-0.00921632
-0.00282278
-0.00111176
-0.000111635
4.06957e-06
4.78966e-05
0.000115533
-0.000247403
-7.27002e-05
0.00105216
-0.0016905
6.28065e-05
0.00498694
0.00152276
-0.00318036
-0.00116859
-0.00178134
-0.00218085
-0.0018149
-0.000980822
-0.000264221
-3.07162e-05
-0.000202057
-0.00114952
0.00172029
0.00268655
-0.000476749
-0.00516467
-0.00527414
-0.00302374
-0.00131674
-0.00122979
9.46687e-05
0.00172747
-0.00397201
-0.000798087
0.0157096
0.0041276
-0.0120502
-0.00905195
-0.00357705
-0.00131057
-0.000105411
-1.15784e-05
-9.44729e-07
-8.56507e-07
8.10851e-06
1.55723e-05
-3.60691e-05
0.000136787
-4.22342e-05
-0.00101548
0.000499522
0.00110704
1.69142e-05
-6.54155e-05
-0.00101667
-0.00109831
-0.000307012
-0.00011033
-2.55282e-05
-1.99071e-06
-4.4593e-05
-8.56544e-05
4.59593e-05
0.000857466
6.68619e-05
-0.000625032
-0.00156216
-0.00105087
-4.13774e-05
-0.000118159
-5.61387e-05
0.00105076
-0.000463874
-0.000344696
0.00408507
0.00111223
-0.00356673
-0.00297169
-0.00126679
-0.000100293
-4.30514e-06
-1.5859e-07
-2.2458e-09
9.7468e-09
-6.59625e-08
-1.75511e-07
3.86259e-07
-1.29486e-06
6.89917e-06
1.3584e-06
8.77023e-06
8.0487e-05
0.000151401
-3.89995e-05
-5.79944e-05
-6.8578e-05
-1.948e-05
-1.69617e-06
-1.87752e-07
-7.44168e-08
6.52191e-07
-6.3686e-06
-4.6754e-06
7.21678e-07
-2.7829e-05
-8.45149e-05
-6.32953e-05
-9.73358e-06
-2.80208e-06
5.78728e-07
-7.42424e-06
7.17026e-06
-9.04756e-06
3.44806e-05
0.00111978
6.58487e-05
-0.000653896
-0.00112931
-0.00010427
-4.42981e-06
-1.77245e-07
-7.14866e-09
-3.07023e-10
-9.56334e-11
4.32703e-10
1.71784e-09
-3.44642e-09
8.39838e-09
-2.04385e-08
1.64347e-09
-3.16546e-08
1.04933e-06
-1.0911e-05
-2.62224e-07
-6.50724e-07
-9.60041e-07
-2.47424e-07
-1.99219e-08
-1.06566e-09
5.80713e-10
-6.2622e-09
4.0857e-08
2.6386e-08
4.15405e-09
-7.59448e-08
-7.17771e-07
-6.30364e-07
-9.32911e-08
-1.07807e-08
-6.93916e-09
7.89788e-08
-1.68504e-07
7.77656e-07
-1.18635e-05
5.24713e-06
-3.10089e-05
-7.12213e-05
-2.26686e-05
-1.4213e-06
-6.0492e-08
-2.21199e-09
-7.65112e-11
-2.34195e-12
4.3201e-13
-2.09183e-12
-1.437e-11
2.62844e-11
-4.56453e-11
5.27279e-11
3.26849e-11
-4.97107e-10
6.88391e-09
-4.3513e-08
-1.19069e-09
-4.88752e-09
-9.36659e-09
-2.12855e-09
-1.47645e-10
-5.2296e-12
-4.87717e-12
4.02337e-11
-1.97724e-10
-1.31695e-10
-2.14186e-11
5.84464e-11
-5.17215e-09
-6.17732e-09
-9.7051e-10
-8.31619e-11
3.2776e-11
-5.51165e-10
2.01311e-09
-1.10441e-08
8.45605e-08
4.70118e-09
-1.44271e-07
-6.21076e-07
-1.91878e-07
-1.4142e-08
-6.92342e-10
-2.95245e-11
-1.18234e-12
-4.37722e-20
-4.54747e-14
-1.13686e-14
7.95809e-14
-7.95809e-14
2.50111e-13
-1.25056e-13
1.59161e-13
-3.28555e-12
3.57886e-11
-1.56751e-10
-3.88809e-12
-2.20098e-11
-5.8742e-11
-1.07321e-11
-6.25278e-13
-2.27374e-14
0
-1.59161e-13
6.48015e-13
4.3201e-13
1.13687e-14
1.73941e-12
-3.30487e-11
-5.9049e-11
-1.07889e-11
-9.89075e-13
-7.95808e-14
1.38697e-12
-1.10959e-11
6.56314e-11
-3.06522e-10
1.83604e-11
-5.50642e-10
-4.72646e-09
-1.58478e-09
-1.45985e-10
-8.68567e-12
-3.18323e-13
2.27374e-14
-2.27373e-14
1.13686e-14
-4.54747e-14
-4.54747e-14
-3.4106e-14
4.54747e-14
9.09496e-14
-5.68434e-14
-3.4106e-14
2.16005e-13
-8.41285e-13
-2.27374e-14
-1.13687e-14
-2.72848e-13
-5.68434e-14
2.27374e-14
1.13686e-14
3.4106e-14
2.27373e-14
1.13687e-14
1.13686e-14
-6.82122e-14
2.27374e-14
-2.38742e-13
-5.00222e-13
-1.81899e-13
3.4106e-14
-3.4106e-14
2.27374e-14
2.27373e-14
-1.02318e-13
3.97904e-13
1.93268e-13
-1.51204e-12
-3.49019e-11
-1.28921e-11
-1.39835e-12
-7.9581e-14
-2.27374e-14
6.82121e-14
-2.27373e-14
3.4106e-14
4.54747e-14
0
5.68434e-14
-3.4106e-14
3.41061e-14
7.95809e-14
-4.37722e-20
1.02318e-13
7.95808e-14
9.09496e-14
3.4106e-14
-3.4106e-14
0
-3.41061e-14
-1.13687e-14
-9.09496e-14
-3.4106e-14
4.54748e-14
-9.09488e-14
3.4106e-14
-1.02318e-13
6.82121e-14
3.4106e-14
-7.95809e-14
2.27374e-14
4.54747e-14
-2.27374e-14
-5.68434e-14
-1.13687e-14
5.68434e-14
-1.13686e-14
-1.13687e-14
-2.38742e-13
-1.02318e-13
1.13687e-14
4.54747e-14
2.27374e-14
3.41061e-14
-4.54747e-14
0
0
3.4106e-14
3.4106e-14
2.27374e-14
-1.13686e-13
2.27374e-14
-3.4106e-14
-4.54747e-14
-1.13687e-14
4.54748e-14
5.68434e-14
0
2.27374e-14
-4.54747e-14
-1.13687e-14
1.13687e-14
3.41061e-14
3.62278e-20
1.13687e-14
2.27374e-14
1.13687e-14
4.54747e-14
2.27374e-14
5.68434e-14
0
-1.13687e-14
-4.54748e-14
-4.54747e-14
1.13687e-14
1.13686e-14
2.27374e-14
3.4106e-14
1.13687e-14
-1.13687e-14
-2.27374e-14
4.37722e-20
3.4106e-14
3.77216e-21
0
-7.95809e-14
2.27374e-14
4.54747e-14
3.4106e-14
-3.4106e-14
-5.68434e-14
1.13687e-14
5.68434e-14
0
0
5.68434e-14
5.68434e-14
-4.54747e-14
3.4106e-14
1.13687e-14
2.27374e-14
0
-3.4106e-14
-1.13686e-14
0
5.68434e-14
0
1.13686e-14
-1.13686e-14
1.13687e-14
2.27374e-14
2.27374e-14
-1.13686e-14
-3.4106e-14
-5.68434e-14
-2.27373e-14
6.82121e-14
-1.13686e-14
-1.13686e-14
7.95808e-14
-6.82121e-14
1.13687e-14
5.68434e-14
-3.77216e-21
5.68434e-14
-3.41061e-14
0
-5.68434e-14
-4.54748e-14
1.25055e-13
0
-1.13687e-14
0
1.13686e-14
-4.54747e-14
5.68434e-14
3.4106e-14
-2.27374e-14
5.68431e-14
-5.68434e-14
1.02317e-13
9.09497e-14
-1.13686e-14
7.95809e-14
2.27373e-14
1.13687e-14
4.54747e-14
-7.95808e-14
-1.13686e-14
7.95809e-14
6.82121e-14
5.68434e-14
-5.68434e-14
3.4106e-14
5.68434e-14
-6.82121e-14
5.68434e-14
-9.09496e-14
1.02318e-13
6.82121e-14
-5.68434e-14
-3.62278e-20
5.68436e-14
1.13687e-14
4.54747e-14
-2.27374e-14
1.13687e-14
-1.13687e-14
6.82122e-14
7.95808e-14
-3.41061e-14
6.82121e-14
-3.41061e-14
4.37722e-20
3.4106e-14
-1.13686e-14
-2.27373e-14
-1.13687e-14
-2.27374e-14
-3.4106e-14
4.54747e-14
-5.68434e-14
-1.13686e-14
2.27373e-14
3.4106e-14
-1.13687e-14
-1.13687e-14
-3.4106e-14
1.13687e-14
2.27373e-14
4.54747e-14
0
3.62278e-20
-5.68434e-14
-1.13687e-14
4.54747e-14
-5.68434e-14
2.27374e-14
-4.54747e-14
5.68434e-14
-5.68434e-14
-4.54747e-14
-7.9581e-14
2.27373e-14
-5.68434e-14
-3.4106e-14
-1.02317e-13
-2.27373e-14
-6.82122e-14
-2.27374e-14
-2.27373e-14
-2.27373e-14
4.54747e-14
-1.02318e-13
-4.54747e-14
-1.13687e-14
2.27373e-14
5.68434e-14
-1.02318e-13
5.68434e-14
-3.62278e-20
7.95809e-14
6.82121e-14
1.13687e-14
0
3.4106e-14
-3.4106e-14
5.68434e-14
-3.4106e-14
2.27374e-14
3.4106e-14
6.82121e-14
1.13687e-14
3.4106e-14
3.4106e-14
2.27374e-14
-1.02318e-13
4.37722e-20
-1.02318e-13
-3.4106e-14
3.4106e-14
1.13687e-14
-1.13687e-13
-4.54747e-14
1.13687e-14
-5.68434e-14
1.13687e-14
-6.82121e-14
-2.27374e-14
3.77216e-21
1.13687e-14
-1.13687e-14
-2.27373e-14
1.13686e-14
-2.27373e-14
1.13687e-14
-4.54747e-14
-7.95808e-14
-4.54748e-14
2.27374e-14
-2.27374e-14
2.27374e-14
-3.77216e-21
4.54747e-14
-2.27374e-14
-2.27374e-14
3.4106e-14
-7.95808e-14
4.37722e-20
6.82121e-14
4.54747e-14
-4.37722e-20
6.82121e-14
-3.77216e-21
2.27374e-14
-3.4106e-14
1.13687e-14
-1.13687e-14
1.13687e-14
-3.4106e-14
-2.27374e-14
1.13687e-14
2.27373e-14
-4.37722e-20
4.37722e-20
-1.13687e-14
2.27374e-14
-7.95808e-14
3.4106e-14
4.54748e-14
0
4.54747e-14
1.13687e-14
3.4106e-14
6.82121e-14
5.68434e-14
5.68434e-14
4.37722e-20
-2.27374e-14
-1.13686e-13
3.4106e-14
-6.82121e-14
3.4106e-14
5.68434e-14
4.54747e-14
-1.13687e-14
-7.95808e-14
-4.54747e-14
-1.13686e-14
-4.54747e-14
-4.54747e-14
-5.68434e-14
2.27373e-14
-5.68434e-14
-1.13687e-14
-5.68434e-14
3.4106e-14
-3.62278e-20
-4.54747e-14
0
-4.54747e-14
1.13687e-14
-3.77216e-21
4.54747e-14
1.13686e-14
-2.27374e-14
5.68434e-14
1.13686e-14
-4.54747e-14
-3.77216e-21
-6.82122e-14
4.54747e-14
1.13686e-14
-2.27374e-14
-2.27373e-14
10.3275
10.1737
9.95969
9.94545
10.1363
10.3815
10.5655
10.6348
10.62
10.5396
10.4592
10.4303
10.4699
10.5781
10.7452
10.9038
11.0631
11.3115
11.7028
12.1441
12.3635
12.0434
11.3737
10.9488
10.8385
10.8582
10.87
10.795
10.7035
10.76
11.0531
11.5008
11.8813
12.0762
12.2529
12.3016
11.7639
10.9317
10.4405
10.3373
11.1258
11.2288
11.3933
11.7315
12.2359
12.7627
13.1571
13.3466
13.437
13.4806
13.5502
13.727
14.0526
14.4944
14.9854
15.4264
15.8265
16.2953
16.8704
17.3319
17.3146
16.5619
15.2816
14.3512
14.3164
14.7467
15.1472
15.347
15.4406
15.6632
16.1348
16.6958
16.9889
16.7779
16.2212
15.3871
14.0691
12.6332
11.568
11.1212
3.56986
3.78332
3.94425
4.05367
4.23591
4.50996
4.77017
4.99095
5.16538
5.24116
5.22232
5.1991
5.28455
5.4932
5.76199
6.02402
6.26243
6.52771
6.9366
7.45037
7.71873
7.36138
6.47723
5.75539
5.80887
6.37257
6.85897
7.03385
6.94927
6.84092
6.94435
7.24547
7.46134
7.37641
7.00992
6.30754
5.31247
4.42913
3.88563
3.56296
0.537944
0.436533
0.401123
0.390922
0.427569
0.51459
0.627447
0.744937
0.850599
0.908743
0.87745
0.786342
0.718413
0.712027
0.759207
0.838381
0.91324
0.960178
1.12881
1.58657
2.04616
2.03605
1.53764
1.05047
0.993821
1.28937
1.59582
1.68314
1.54188
1.3364
1.27595
1.42656
1.60312
1.63784
1.57006
1.37333
1.02422
0.709596
0.669955
0.690947
0.111407
-0.170435
-0.341077
-0.376297
-0.339749
-0.269523
-0.184631
-0.104828
-0.0470517
-0.0208837
-0.060094
-0.154628
-0.237956
-0.271688
-0.253965
-0.19496
-0.111953
-0.0819957
-0.0683613
0.237432
0.735629
0.814648
0.388225
-0.0542547
-0.154694
0.00678765
0.180446
0.204857
0.0835446
-0.0597757
-0.0986598
0.0253298
0.204707
0.278558
0.26613
0.19082
0.0508764
-0.0327106
0.0607865
0.219383
0.0758048
-0.152184
-0.353667
-0.405665
-0.379918
-0.328017
-0.266298
-0.20816
-0.161224
-0.13798
-0.166665
-0.245384
-0.318493
-0.342924
-0.311383
-0.239979
-0.137771
-0.0459551
-0.0845314
-0.0836209
0.254279
0.482426
0.206352
-0.191832
-0.319238
-0.213698
-0.0885547
-0.0669235
-0.12552
-0.176475
-0.178438
-0.118291
-0.0141898
0.0559416
0.0736634
0.0379639
-0.0594286
-0.11963
-0.0567794
0.0773287
0.0478315
-0.0720453
-0.221443
-0.267602
-0.250843
-0.21838
-0.18364
-0.15149
-0.120476
-0.0928366
-0.0926551
-0.141629
-0.202098
-0.224345
-0.190363
-0.127346
-0.0710779
-0.0109337
0.00914164
-0.064277
-0.00287433
0.211525
0.167365
-0.0781933
-0.202702
-0.161179
-0.0844809
-0.0559444
-0.0614051
-0.057458
-0.0422489
-0.0275758
-0.00392296
0.016874
0.0336684
0.0421115
-0.00419447
-0.0651292
-0.0502841
0.0236347
0.0242098
-0.0281189
-0.10737
-0.138243
-0.130288
-0.114266
-0.0998384
-0.0846824
-0.0663918
-0.0480938
-0.0371476
-0.0497609
-0.0806878
-0.0975523
-0.0816096
-0.0499751
-0.0283875
-0.0123211
0.00653071
-0.00850897
-0.0237923
0.0577518
0.0905454
-0.0100472
-0.0891259
-0.0813052
-0.0464687
-0.0268933
-0.0188182
-0.0105064
-0.00282112
-8.05581e-06
0.0016096
0.00235029
0.00367857
0.0187681
0.0163509
-0.0159526
-0.0192678
0.0124056
0.0111513
-0.0121433
-0.0450229
-0.0587294
-0.0551858
-0.0488622
-0.0436071
-0.0375464
-0.0273831
-0.0174807
-0.0148082
-0.0170832
-0.0219619
-0.0239842
-0.0191738
-0.0124108
-0.00799108
-0.00443935
0.00151538
-0.00127648
-0.00824544
0.0152195
0.0359049
0.000602184
-0.0348635
-0.0342109
-0.0212552
-0.0117588
-0.00625151
-0.00266363
-0.000186288
8.38274e-05
-5.99776e-05
6.48295e-05
-0.000998512
0.00218127
0.00613662
-0.00215856
-0.00370076
0.00940869
0.00480008
-0.00596042
-0.0167785
-0.020119
-0.0181307
-0.0157575
-0.0141667
-0.0118456
-0.00807087
-0.00459137
-0.00358095
-0.00513349
-0.00456513
-0.00285291
-0.00168128
-0.00127558
-0.00167839
-0.00134852
0.00108221
-0.000678478
-0.00255201
0.00477734
0.0121513
0.000228555
-0.0124147
-0.0131081
-0.00836411
-0.00498738
-0.00273792
-0.00117965
-0.000208684
-9.23513e-05
-4.3651e-05
-1.29489e-05
-8.16879e-05
2.5978e-05
0.00128447
-0.000732651
-0.000238431
0.00573823
0.00173232
-0.00212812
-0.00519111
-0.00525843
-0.00468142
-0.00357317
-0.00345267
-0.00289207
-0.00174474
-0.00120824
-0.00102801
-0.00126459
-0.00112999
-0.000109843
-4.38688e-06
-2.50441e-05
-3.49578e-05
-4.01118e-05
7.05124e-05
5.09561e-05
-0.00118368
0.00155617
0.00357644
-0.000578534
-0.00448539
-0.00469873
-0.00263501
-0.00155163
-0.00111878
-0.000104401
5.03754e-07
9.97687e-07
4.88594e-07
3.59423e-06
-6.11039e-05
2.402e-05
0.000156434
-0.000229177
-0.000182739
0.00244723
0.00107207
-0.00057868
-0.00160924
-0.000976074
-0.000931517
-0.000568415
-0.00104928
-0.000157615
-0.000134396
-7.28738e-05
-3.04384e-05
-4.57189e-05
-4.70376e-05
-8.75372e-06
1.97647e-06
7.19796e-06
1.61713e-06
-7.46765e-06
-2.9561e-06
4.36785e-05
-0.000191127
0.00083699
0.00125424
-0.000151133
-0.000921175
-0.000972664
-0.00111658
-0.000145779
-1.01902e-05
-2.35931e-07
-1.36538e-08
-1.36566e-08
-4.44902e-09
-9.23766e-08
8.44639e-07
-4.73607e-06
-2.7593e-07
-3.87869e-06
-3.0067e-05
0.00101052
5.7607e-05
-0.000155155
-0.000266672
-0.000120948
-5.85261e-05
-3.88966e-05
-1.26733e-05
-4.70803e-06
-1.24609e-06
-1.37847e-07
-5.88559e-08
-2.61546e-07
-5.84795e-07
-1.85947e-07
8.73634e-09
2.44916e-08
-1.07439e-08
1.00562e-07
-7.56252e-09
-4.4819e-07
-3.47421e-06
3.46887e-05
0.000107276
-4.24367e-05
-0.000195456
-0.00011847
-1.94552e-05
-1.37825e-06
-6.37942e-08
-2.15391e-09
-4.30305e-11
1.84445e-10
2.90015e-11
1.64416e-09
-8.93522e-09
2.20932e-08
-9.46073e-09
1.89407e-07
-3.66928e-06
6.24479e-05
-9.92177e-06
-3.58195e-05
-2.19191e-05
-2.33738e-06
-4.57445e-07
-1.39788e-07
-2.22214e-08
-8.82494e-10
9.88797e-10
1.44655e-10
1.46428e-11
-7.04096e-10
-5.51503e-09
-2.70204e-09
-3.69823e-11
7.40784e-11
1.34741e-10
-1.19602e-09
1.2189e-09
-1.15339e-09
8.29861e-08
-6.53598e-08
-2.22671e-06
-1.92582e-05
-1.37042e-05
-1.60829e-06
-1.62187e-07
-9.84366e-09
-3.57886e-10
-5.82077e-12
9.66338e-13
-2.34194e-12
-1.7053e-13
-2.41584e-11
8.38668e-11
-8.18886e-11
-2.71928e-10
4.84456e-09
-7.61969e-08
1.03843e-06
-7.40829e-08
-4.59101e-07
-2.88613e-07
-3.25777e-08
-2.95627e-09
-1.57593e-10
1.72235e-11
2.19416e-12
-1.37562e-12
-2.04637e-13
1.13686e-14
4.54747e-13
-4.10978e-11
-3.08773e-11
-1.60298e-12
2.6148e-13
-6.82123e-13
8.91299e-12
-2.15551e-11
7.64772e-11
-8.90247e-10
1.51454e-10
-9.13862e-10
-1.48198e-07
-1.27406e-07
-1.70597e-08
-1.44792e-09
-7.70342e-11
-2.77396e-12
-1.36424e-13
3.4106e-14
3.4106e-14
4.54747e-14
3.86536e-13
-6.93489e-13
5.00222e-13
-3.81988e-12
6.96332e-11
-9.85719e-10
1.11656e-08
-3.78691e-10
-4.27759e-09
-2.52522e-09
-2.6464e-10
-1.44496e-11
-4.3201e-13
-4.54747e-14
-3.4106e-14
-2.27373e-14
3.41061e-14
-3.62278e-20
-1.13687e-14
-2.50111e-13
-3.18324e-13
-6.82121e-14
3.41061e-14
-3.4106e-14
-1.13687e-14
1.81899e-13
-8.75388e-13
5.78666e-12
-2.68301e-12
4.83851e-11
-1.09865e-09
-1.15112e-09
-1.7468e-10
-1.41653e-11
-7.04858e-13
1.13686e-14
-1.13687e-14
-2.27374e-14
4.54747e-14
-5.68434e-14
-1.13687e-14
-4.54747e-14
-5.68434e-14
-1.25056e-13
7.38962e-13
-1.02432e-11
9.39169e-11
-1.21645e-12
-3.18437e-11
-1.6064e-11
-1.53477e-12
-7.9581e-14
-3.4106e-14
1.13687e-14
2.27373e-14
1.13687e-14
5.68434e-14
2.27374e-14
-1.13686e-14
-4.37722e-20