/*--------------------------------*- C++ -*----------------------------------*\
| =========                 |                                                 |
| \\      /  F ield         | OpenFOAM: The Open Source CFD Toolbox           |
|  \\    /   O peration     | Version:  5.0                                   |
|   \\  /    A nd           | Web:      www.OpenFOAM.org                      |
|    \\/     M anipulation  |                                                 |
\*---------------------------------------------------------------------------*/
FoamFile
{
    version     2.0;
    format      ascii;
    class       volVectorField;
    location    "50.4676134421789371";
    object      TTDiffLMean;
}
// * * * * * * * * * * * * * * * * * * * * * * * * * * * * * * * * * * * * * //

dimensions      [0 -1 0 2 0 0 0];

internalField   nonuniform List<vector> 
60000
(
(-87.3696 -166370 -1673.51)
(-282.527 -171246 -1352.39)
(-456.231 -177958 -1015)
(-413.979 -180822 -498.332)
(-146.928 -175832 154.032)
(73.2712 -170979 503.301)
(139.442 -172172 339.308)
(202.377 -173015 -137.826)
(307.774 -169766 -569.401)
(317.203 -165497 -773.019)
(187.157 -163971 -772.829)
(8.11107 -165528 -609.91)
(-106.789 -167851 -280.824)
(-106.867 -168447 189.143)
(-56.6828 -167837 678.133)
(-19.9743 -168475 1030.28)
(31.2268 -169959 1184.19)
(124.891 -169863 1149.37)
(237.336 -165761 913.794)
(328.398 -158180 521.604)
(369.954 -148397 121.518)
(343.87 -138858 -87.9149)
(263.072 -132559 -71.8176)
(185.355 -129568 14.902)
(146.999 -128290 42.1396)
(120.499 -127723 -12.2282)
(41.5328 -129182 -118.648)
(-134.77 -135680 -208.51)
(-342.2 -146788 -130.282)
(-378.233 -154988 270.238)
(-175.16 -153149 823.42)
(52.6304 -145238 1138.48)
(115.567 -139284 1151.57)
(-50.246 -141053 1042.07)
(-396.859 -153671 743.175)
(-601.874 -169236 -93.3243)
(-365.701 -171744 -1233.16)
(-13.741 -164985 -1867.11)
(111.066 -162068 -1998.86)
(48.536 -163303 -1920.97)
(57.1527 -137266 -3990.61)
(-385.629 -135096 -3210.69)
(-797.756 -131195 -2420.08)
(-822.788 -124586 -1353.97)
(-459.716 -116573 32.499)
(-113.126 -112946 1060.71)
(31.2605 -115844 1164.02)
(180.656 -121498 345.204)
(505.472 -127555 -803.772)
(759.009 -134159 -1673.78)
(635.117 -140180 -2016.16)
(211.081 -143034 -1796.66)
(-169.902 -141805 -1071.7)
(-259.36 -137318 79.0442)
(-144.321 -132660 1394.7)
(-49.8033 -132000 2521.73)
(-13.8454 -136550 3285.35)
(73.5364 -144275 3616.61)
(316.052 -151253 3338.35)
(676.854 -155701 2352.34)
(1010.05 -157015 959.719)
(1173.71 -155658 -111.474)
(1093.65 -154312 -382.199)
(866.842 -154147 -95.1785)
(684.947 -155013 190.765)
(572.633 -156174 159.808)
(316.669 -158232 -176.802)
(-294.425 -162628 -585.825)
(-1068.6 -168172 -546.031)
(-1341.57 -169701 467.203)
(-813.044 -164658 2087.64)
(-18.3947 -157438 3276.81)
(416.268 -152196 3627.85)
(121.727 -150477 3471.22)
(-847.857 -152673 2737.81)
(-1594.16 -153268 737.893)
(-1220.6 -145932 -1961.24)
(-301.711 -137136 -3787.66)
(255.466 -135090 -4521.91)
(309.249 -136885 -4533.07)
(109.697 -20666.9 -1025.47)
(14.6924 -20332.6 -841.265)
(-122.007 -18440.7 -649.139)
(-161.131 -15410.7 -396.888)
(-105.715 -12535.9 -36.3422)
(-68.5402 -11107.5 288.134)
(-75.2277 -11170.9 451.34)
(-73.9712 -12090.2 387.467)
(-11.2964 -13773.3 131.864)
(96.7513 -16678.1 -175.664)
(168.753 -20333.3 -406.241)
(140.7 -22757.2 -446.942)
(53.3978 -22442.5 -280.897)
(5.69191 -20051.2 29.6219)
(15.7649 -17517 394.848)
(23.2225 -16221.5 739.844)
(-24.1236 -16700.6 1070.56)
(-123.812 -18912.1 1406.79)
(-172.155 -22410.9 1627.67)
(-43.2512 -26234.8 1459.52)
(207.361 -29395 887.804)
(424.993 -31612.4 262.801)
(519.71 -33302.9 -78.9712)
(480.756 -34439.3 -81.2705)
(383.331 -35001.3 65.4835)
(310.213 -35729.7 139.298)
(220.218 -37425.7 57.4154)
(-16.6223 -39936.4 -148.369)
(-391.815 -41424.4 -273.973)
(-596.838 -39947 -25.517)
(-440.527 -36398.7 520.95)
(-117.962 -33420.4 982.422)
(144.75 -32146 1200.64)
(176.092 -32005.7 1294.85)
(-105.472 -31553.8 1223.42)
(-422.367 -28383.7 693.146)
(-402.569 -23078.6 -78.0061)
(-177.364 -19297.1 -637.213)
(6.74083 -18529.9 -948.497)
(100.789 -19665.3 -1087.63)
(9.70251 -512.693 -81.6977)
(10.151 -596.45 -65.7187)
(0.801266 -513.119 -46.233)
(-3.69815 -308.094 -25.1592)
(-0.575312 -140.582 6.55199)
(-0.273359 -59.7944 32.7643)
(-5.10407 -14.7304 52.7897)
(-13.2313 27.4691 61.743)
(-16.516 32.0692 41.9582)
(-13.5851 -51.2993 7.12777)
(-6.66544 -254.711 -25.6453)
(4.45205 -507.85 -31.819)
(13.431 -587.536 -3.2964)
(15.1281 -437.385 29.5993)
(12.8169 -252.849 45.9002)
(9.7587 -157.941 55.4692)
(4.75278 -156.429 95.1514)
(-22.2761 -177.209 204.508)
(-86.625 -226.849 385.436)
(-110.723 -583.517 474.212)
(-38.0173 -1120.84 334.158)
(37.7082 -1359.42 144.283)
(68.7419 -1353.46 38.6388)
(69.7254 -1283.24 3.56437)
(57.9275 -1253.75 1.1306)
(44.2282 -1326.57 6.37588)
(32.8751 -1584.97 2.4735)
(6.19026 -2168.06 -26.7799)
(-68.6879 -2759.52 -74.7879)
(-132.256 -2766.79 -56.668)
(-100.591 -2282.04 45.3553)
(-29.7483 -1763.93 122.687)
(19.117 -1467.97 136.769)
(34.5691 -1435.88 144.844)
(11.2141 -1575.12 174.133)
(-35.8298 -1405.69 147.668)
(-39.6708 -860.367 47.8833)
(-14.7149 -441.441 -22.2676)
(-2.04227 -313.585 -52.2162)
(3.25045 -373.549 -75.1412)
(0.0179326 27.0753 -3.75227)
(0.132852 13.7638 -1.70603)
(-0.0206106 -2.05496 0.147371)
(-0.1052 -16.093 0.43797)
(-0.479074 -32.1709 -1.55992)
(-0.95874 -43.9733 -7.85575)
(-0.272711 -40.6586 -10.3389)
(0.242485 -12.7121 -2.52756)
(-0.589416 18.7207 1.64733)
(-1.42625 43.2762 -0.48278)
(-2.76347 82.1603 -6.14621)
(-2.23455 79.5904 -7.2297)
(0.00816991 -3.22653 0.125837)
(-3.48911 -85.627 -7.08748)
(-9.96622 -124.238 -27.5906)
(-11.7231 -121.366 -40.4874)
(-5.40092 -82.6914 -31.0688)
(-0.395588 31.2347 10.8068)
(-28.7251 343.13 114.686)
(-76.152 642.188 234.293)
(-45.7299 420.296 173.653)
(-0.652162 53.3164 23.8463)
(-16.827 -62.9563 -23.9854)
(-39.3285 -62.0743 -9.49915)
(-29.7558 -40.8839 0.415523)
(-11.5196 -11.8931 0.228281)
(-4.08349 6.10816 -0.157945)
(0.0150185 -0.128117 -0.014369)
(-7.78996 -0.351952 -12.2224)
(-33.3288 116.318 -21.8449)
(-27.8039 163.111 2.72489)
(-5.95973 84.2651 15.4107)
(0.297238 7.736 2.46326)
(-2.18692 -14.4898 -7.23569)
(0.211258 2.02829 1.2986)
(-2.06794 41.9135 14.4844)
(-3.01281 55.4389 5.91973)
(-0.0798687 8.07891 -0.174902)
(-0.166716 -14.2554 1.21748)
(0.0414978 11.1935 -1.33163)
(0.00740514 -12.18 1.38056)
(0.0295488 -14.7405 1.5636)
(0.0171092 -24.8906 1.57858)
(0.052259 -30.1435 0.688671)
(-0.128625 -31.5556 -0.809711)
(-0.57259 -33.0356 -4.41552)
(-0.663062 -30.4856 -7.67999)
(-0.0707176 -22.9871 -5.49201)
(0.221957 -13.8977 -1.44722)
(0.187845 -8.68746 0.259232)
(-0.146356 5.65205 -0.597313)
(-0.599244 20.6331 -2.49405)
(0.330011 -17.21 1.53945)
(-0.595269 -88.9344 1.06875)
(-4.7699 -114.414 -11.2699)
(-7.05739 -90.7303 -19.8918)
(-5.86874 -58.6775 -18.7335)
(-1.12849 -27.1797 -8.61032)
(-6.95711 96.4559 27.7417)
(-46.8895 366.814 113.814)
(-44.7793 382.419 123.052)
(-1.30703 30.6695 8.29036)
(-18.0548 -233.054 -34.1806)
(-44.3004 -259.679 -6.7604)
(-27.6126 -138.929 3.58868)
(-6.20439 -37.6878 0.556831)
(-0.858848 -7.12108 -0.449769)
(-1.0365 -1.85505 -0.990741)
(-0.0735907 -0.634326 0.0614633)
(-4.55552 39.8494 -3.51354)
(-10.244 104.855 -0.376788)
(-2.97558 52.6413 4.30064)
(0.171875 -33.0943 -4.90401)
(-2.96763 -62.8295 -12.4466)
(-2.61178 -43.8758 -11.1607)
(0.0586709 -13.4874 -2.67438)
(0.0110107 -0.334798 -0.0228699)
(0.310018 -27.7579 0.713172)
(-0.637414 -42.0676 3.23574)
(-0.348213 -28.171 2.82356)
(-0.0312341 -4.58998 0.637619)
(0.000394757 -3.87148 0.574934)
(0.00346715 -5.7955 0.636507)
(0.0412173 -6.80816 0.346606)
(0.0573848 -6.66188 0.032266)
(-0.0112918 -7.33764 -0.679989)
(-0.146888 -7.67344 -1.89781)
(-0.115136 -5.978 -1.88111)
(0.0060925 -4.08583 -0.724366)
(0.0392834 -2.76198 0.0561512)
(0.00656783 -0.2865 0.0427754)
(-0.131295 4.28545 -0.758882)
(-0.0181585 0.716583 -0.102972)
(0.102221 -16.2927 1.27867)
(-0.592557 -27.4703 -0.527506)
(-1.2597 -21.233 -3.17951)
(-1.86185 -12.3101 -4.09542)
(-1.96468 -6.23757 -3.46811)
(-0.366855 6.59317 2.37922)
(-20.6675 109.545 35.3156)
(-32.9071 199.474 63.7255)
(-2.44753 37.3509 8.96545)
(-10.7333 -160.508 -14.8432)
(-24.796 -151.218 4.62091)
(-10.1035 -47.8248 4.02862)
(-1.46302 -6.73154 0.399722)
(-0.0170194 -0.219926 -0.0109893)
(-0.00116201 0.0554162 0.0186304)
(-0.169248 1.20905 -0.273655)
(-0.0160033 0.0406769 0.0139734)
(-0.821547 10.0265 -0.324681)
(-1.42823 21.295 1.28326)
(-0.103175 2.9774 0.399021)
(-0.145546 -14.9362 -2.78542)
(-0.729549 -13.8586 -3.72224)
(-0.206803 -7.39404 -2.21489)
(0.0700648 -3.17649 -0.392368)
(0.117962 -6.41207 0.135213)
(-0.085404 -10.9366 1.03601)
(-0.162314 -8.46068 1.05502)
(-0.00950954 -0.682161 0.12637)
(-0.00502342 -0.571115 0.120885)
(-0.00716751 -0.637304 0.123325)
(-0.00249282 -0.66818 0.0722338)
(0.00566497 -0.475034 0.026973)
(0.00731402 -0.454221 -0.0146379)
(0.000720946 -0.760067 -0.160804)
(-0.0144463 -0.770796 -0.28688)
(-0.00649329 -0.52828 -0.158678)
(0.00284349 -0.306559 -0.0116688)
(-0.00466362 0.138643 -0.026565)
(-0.041287 0.827363 -0.222481)
(-0.0187311 0.501578 -0.112859)
(0.0155553 -1.85324 0.272254)
(-0.0711449 -3.88093 0.186325)
(-0.0919541 -2.67849 -0.214486)
(-0.160668 -1.33942 -0.360192)
(-0.948619 0.872197 -0.493482)
(-0.248798 0.975273 -0.154285)
(-5.49332 13.4418 6.13444)
(-16.5562 69.7819 21.0505)
(-1.66276 20.1935 3.70354)
(-4.81407 -71.8546 -3.00624)
(-8.7593 -48.8255 3.38006)
(-2.40122 -9.24405 1.28515)
(-0.258958 -0.755591 0.105255)
(-0.033124 -0.0550258 -0.00936199)
(0.000507932 0.0343894 0.00167779)
(-0.00281845 0.0360414 0.00575819)
(-0.00961239 0.128068 -0.0137222)
(-0.0019869 0.00751524 0.0048763)
(-0.0549225 1.00445 -0.00510511)
(-0.117587 2.27333 0.240139)
(-0.00818446 0.285096 0.0492132)
(-0.0137563 -1.44586 -0.360518)
(-0.04262 -1.11983 -0.447032)
(-0.00245064 -0.705554 -0.194844)
(0.0104301 -0.717497 -0.0161861)
(0.00196365 -1.13597 0.125213)
(-0.016077 -1.05252 0.177082)
(-0.000582113 -0.04655 0.0129459)
(-0.00068856 -0.0416666 0.0132008)
(-0.00110979 -0.0385923 0.0132854)
(-0.00106712 -0.0329363 0.00793543)
(-5.26737e-05 -0.0129225 0.00217958)
(1.19835e-05 -0.000583409 4.82953e-05)
(1.75092e-05 -0.00100323 -0.000149824)
(-8.2899e-05 -0.0321011 -0.0125139)
(-0.000753569 -0.0411086 -0.0189775)
(-7.3105e-06 -0.0137233 -0.00242166)
(-0.00226987 0.0380739 -0.00838468)
(-0.0155348 0.156735 -0.0574209)
(-0.00850355 0.126292 -0.0386899)
(0.000970959 -0.2845 0.0590713)
(-0.0243132 -0.562895 0.059848)
(-0.00668336 -0.282358 -0.00803855)
(-0.000334332 0.0211974 0.00349986)
(-0.139297 0.0176965 -0.0312147)
(-0.410681 1.92586 0.177553)
(-0.660562 -1.26832 0.439694)
(-5.19565 16.0809 4.48)
(-0.666061 7.24533 0.919305)
(-1.38485 -22.5102 -0.298219)
(-2.25385 -11.7283 0.966812)
(-0.546903 -1.7513 0.274142)
(-0.0455072 -0.129974 0.02305)
(-0.00209208 -0.00514809 0.000463767)
(-0.000714071 0.00311351 -7.07835e-05)
(8.84757e-06 0.00170932 -0.000179252)
(-0.000208229 0.00197159 0.000219019)
(-0.000406874 0.00760648 -0.000185017)
(-0.000342504 0.00259734 0.000954859)
(-0.00129207 0.0331956 0.000847133)
(-0.00639069 0.135709 0.0188589)
(-0.00105177 0.0317175 0.00628202)
(0.000170639 -0.079868 -0.0258114)
(-0.00138716 -0.0732002 -0.0300088)
(-0.000114156 -0.0556261 -0.00736607)
(0.000258366 -0.0609223 0.00671015)
(-0.000333712 -0.0738483 0.0169583)
(3.10857e-05 -0.00382547 0.00156077)
(-2.46226e-05 -0.00355573 0.0017608)
(-8.14226e-05 -0.00200918 0.00112597)
(-7.75559e-05 -0.00113789 0.000594724)
(-7.51524e-05 -0.000959636 0.000546951)
(-1.16427e-06 -7.64366e-05 3.24291e-05)
(-6.69742e-08 6.90532e-06 3.94334e-07)
(1.13228e-07 -1.66015e-05 -6.55025e-06)
(-4.0407e-05 -0.00215042 -0.00140142)
(-0.000127947 -0.00200605 -0.000999487)
(-0.000281059 0.00263491 -0.000869346)
(-0.00407939 0.0235448 -0.0109687)
(-0.00208777 0.0211496 -0.00631111)
(0.000120838 -0.0411137 0.00754892)
(-0.00674168 -0.0786366 0.0099322)
(-0.0024939 -0.0318917 0.000571218)
(-0.00289558 0.0372341 0.004414)
(-0.00138358 -0.0295185 -0.00222252)
(-0.0968987 0.333019 0.0570968)
(-0.0174467 -0.298571 -0.00494716)
(-0.930788 2.1762 0.59274)
(-0.196169 2.01785 0.192651)
(-0.246909 -5.09177 -0.0348136)
(-0.43848 -2.37194 0.180762)
(-0.0973558 -0.31038 0.0457181)
(-0.00777138 -0.0179295 0.00401114)
(-0.000413474 -0.00131692 0.000303462)
(-9.82088e-08 -8.79933e-07 1.06328e-07)
(-3.93305e-05 0.00061624 -9.81659e-06)
(-7.65014e-08 5.80782e-06 -1.05156e-06)
(-1.66778e-06 2.30139e-05 3.39786e-06)
(-6.83701e-07 3.03493e-05 2.35218e-06)
(-5.3933e-05 0.00109497 0.000169089)
(-1.42318e-07 2.78161e-05 2.73087e-06)
(-0.000186037 0.00471982 0.000652884)
(-2.28803e-05 0.000667988 0.000112616)
(4.62243e-05 -0.00448239 -0.00125906)
(-5.09061e-05 -0.00302139 -0.000702029)
(-6.68893e-06 -0.00451377 0.00038014)
(5.10764e-05 -0.00421006 0.00122247)
(2.63678e-07 -1.19351e-05 6.36683e-06)
(-7.53145e-07 -5.53244e-05 2.94456e-05)
(-2.37809e-06 -5.59308e-05 3.36377e-05)
(-7.7532e-07 -1.79774e-05 1.1888e-05)
(-1.98656e-08 -2.38344e-06 1.66334e-06)
(-2.14547e-09 -1.42719e-07 1.55301e-07)
(-1.75887e-07 1.52729e-06 -3.66865e-07)
(-3.298e-07 3.45442e-06 2.15537e-06)
(-1.38755e-06 -6.92308e-06 -5.7343e-06)
(-3.66999e-06 3.52773e-07 -1.49307e-05)
(-1.02287e-06 -7.5137e-06 -5.2229e-06)
(-0.000291317 0.000989218 -0.000606174)
(-0.000374718 0.00320799 -0.000760393)
(2.84752e-05 -0.00385227 0.000446816)
(-0.00103049 -0.0113257 0.000924914)
(-0.000756292 -0.00263379 0.000233448)
(-5.94422e-05 0.00158337 0.000167004)
(-0.000407908 0.00760115 0.000449721)
(-0.00485839 0.00306538 0.00300339)
(-0.000214301 0.0150309 0.000929191)
(-0.0852185 0.134779 0.0426251)
(-0.0367616 0.376765 0.0294683)
(-0.0225236 -0.758113 -0.00659559)
(-0.0569921 -0.356288 0.0215237)
(-0.011061 -0.0382137 0.00498726)
(-0.000530691 -0.00137336 0.000323056)
(-0.000124779 -0.000195547 7.64203e-05)
(-2.04586e-06 -4.57992e-06 1.38763e-07)
(6.28593e-09 3.85277e-07 -2.22293e-09)
(4.7009e-11 1.83371e-07 -1.35176e-09)
(8.03356e-10 4.12035e-07 -1.67848e-09)
(-2.2096e-10 1.38327e-07 6.9615e-10)
(-3.75541e-10 4.4911e-08 1.11983e-09)
(6.82674e-11 8.66692e-07 2.85693e-09)
(2.50171e-10 6.05718e-08 1.91636e-11)
(8.29426e-11 8.20432e-07 4.66644e-10)
(-3.6318e-08 2.01825e-06 7.77179e-08)
(2.4999e-08 -1.92658e-05 -2.85668e-06)
(-3.22156e-08 -1.23495e-05 5.49855e-07)
(-3.10081e-07 7.97532e-06 -2.53045e-06)
(1.81438e-09 -4.53312e-07 3.59971e-07)
(3.33804e-09 -1.21878e-06 1.24274e-06)
(-3.93369e-09 -7.71538e-07 1.45584e-06)
(-1.2035e-09 -1.70686e-08 7.26504e-08)
(-2.34833e-11 -3.89783e-10 5.42783e-10)
(-1.38179e-13 -5.6745e-12 1.10939e-11)
(-7.49658e-13 7.31437e-11 6.98672e-12)
(4.16929e-11 2.38192e-08 -1.68784e-10)
(-1.30114e-09 1.21315e-07 4.29105e-08)
(-1.92501e-07 1.42017e-06 -3.2119e-07)
(-6.64848e-07 4.54008e-06 -1.25655e-07)
(-8.63037e-05 8.95423e-05 -9.52621e-05)
(-1.26809e-05 0.00010425 -1.71443e-05)
(-6.74686e-08 -0.00153411 0.000151)
(-6.70284e-05 -0.00125473 5.47075e-05)
(-0.000100093 -0.000330182 2.33301e-05)
(-3.3223e-06 1.30801e-05 -2.26727e-06)
(-1.0468e-05 6.80024e-05 1.08927e-05)
(-8.84901e-05 -0.00063563 1.05964e-05)
(-0.000136477 0.00261641 0.000207068)
(-0.00361999 0.00155563 0.00149036)
(-0.00400431 0.0419412 0.00248714)
(-0.00053 -0.0619212 -0.000326505)
(-0.00393911 -0.0322062 0.00162779)
(-0.00102974 -0.00392567 0.000410208)
(-0.000168633 -0.000472482 7.81071e-05)
(-1.01453e-06 -4.90046e-06 8.17328e-08)
(-6.59138e-10 -3.71896e-09 7.24007e-11)
(-1.52028e-12 3.68304e-11 1.21979e-13)
(2.71136e-14 7.25866e-12 -5.30218e-14)
(1.72615e-14 9.64794e-12 -4.09577e-14)
(-3.76411e-15 2.9655e-12 1.48355e-14)
(-7.92244e-15 1.31528e-12 3.25862e-14)
(4.23108e-15 1.46443e-11 9.85521e-14)
(2.00606e-15 2.13804e-13 2.02833e-14)
(-2.85414e-14 2.97831e-12 -1.60867e-12)
(-2.1478e-12 -1.77882e-11 1.03429e-12)
(1.26547e-11 -6.00417e-08 -1.89692e-10)
(-9.99625e-12 -7.86261e-10 -4.07472e-10)
(7.93766e-12 -2.49916e-09 1.97695e-09)
(4.44564e-14 -5.68771e-12 5.56679e-12)
(6.90684e-13 -1.45664e-10 1.28356e-10)
(-4.30637e-13 -2.8858e-10 2.95308e-10)
(-2.94798e-13 -1.42332e-11 1.59316e-11)
(-5.979e-15 -1.11122e-13 1.13859e-13)
(-3.20402e-17 -5.30241e-16 9.07824e-16)
(-6.32314e-19 -6.40175e-17 1.50977e-17)
(-1.72694e-15 -6.52097e-14 1.06093e-14)
(-1.37655e-12 1.21358e-11 4.89375e-12)
(-5.57282e-10 1.60851e-09 -7.35672e-11)
(-2.63971e-07 7.58743e-07 -2.59825e-10)
(-7.09797e-07 -1.89511e-06 -1.10438e-08)
(-8.67244e-07 7.26154e-06 -3.76962e-08)
(-1.21434e-06 -1.65669e-05 6.57684e-08)
(-5.15761e-07 -8.85011e-06 1.38861e-08)
(-1.41608e-08 -9.40019e-07 8.06716e-10)
(-1.8912e-07 -1.2382e-06 3.61549e-09)
(-2.28965e-07 -1.07354e-06 4.51045e-09)
(4.86398e-08 2.06281e-06 -2.88147e-09)
(-5.89847e-05 0.000371733 1.33683e-06)
(-8.00723e-05 -0.000256871 5.32326e-05)
(-0.000252699 0.0025748 6.15697e-05)
(1.60141e-05 -0.00333464 9.31245e-06)
(-0.00010373 -0.00141255 9.36331e-05)
(-0.000107971 -0.000544986 7.45373e-05)
(-1.36972e-06 -4.64706e-06 1.21272e-07)
(-1.78889e-09 -4.33277e-09 1.62038e-10)
(-2.23115e-12 -3.76042e-12 2.10948e-13)
(-2.56926e-15 -1.12382e-14 2.657e-16)
(-7.21048e-18 2.64314e-16 -9.75421e-19)
(2.70127e-19 1.01747e-16 -4.50933e-19)
(-2.06425e-20 3.5269e-17 1.86465e-19)
(-1.05571e-19 2.4272e-17 7.65106e-19)
(8.1053e-20 1.87056e-16 2.75185e-18)
(-9.8299e-21 -4.33718e-19 -2.32754e-19)
(1.9363e-19 7.82868e-17 -1.75832e-17)
(-8.70241e-18 -7.51053e-16 -3.73954e-19)
(1.84383e-16 -2.75162e-13 8.83013e-16)
(-1.0223e-15 -7.46879e-14 -3.56395e-14)
(-2.84793e-15 6.21853e-14 -1.70033e-12)
(-1.62978e-18 7.32523e-17 -1.47757e-16)
(4.65718e-17 -7.55754e-15 6.58533e-15)
(-1.09813e-17 -3.99195e-14 3.56206e-14)
(-3.33492e-17 -2.34979e-15 2.08901e-15)
(-7.54196e-19 -1.77303e-17 1.46731e-17)
(-3.9546e-21 -6.48269e-20 5.05942e-20)
(-1.4538e-22 6.90853e-22 1.82866e-21)
(-7.88942e-20 1.29478e-18 7.83175e-19)
(-1.58453e-17 9.67859e-16 1.14087e-16)
(-8.01392e-16 2.07905e-13 -9.94282e-16)
(1.67752e-13 2.01283e-11 7.71647e-17)
(-5.52633e-11 -2.01e-08 -2.07412e-13)
(4.85292e-10 -2.59437e-07 2.59194e-11)
(-3.72883e-10 -1.65131e-07 3.82544e-11)
(-5.6174e-11 -1.66779e-09 1.32073e-12)
(-1.21597e-12 -6.15302e-11 4.28677e-14)
(4.76761e-13 -4.93665e-11 5.10708e-14)
(2.38662e-11 1.43454e-08 6.36922e-13)
(1.18509e-10 7.19462e-08 6.47062e-12)
(-8.41986e-10 5.38711e-08 2.16554e-11)
(-9.85647e-10 1.28716e-06 1.89246e-09)
(-1.58746e-09 1.46772e-06 6.04401e-10)
(1.48689e-08 -8.93329e-06 1.20558e-09)
(-8.92609e-09 -6.09295e-06 2.03072e-08)
(-2.65233e-09 -4.38658e-07 2.65433e-09)
(-1.81502e-11 -5.19653e-10 5.04381e-12)
(-2.87304e-15 -9.05926e-14 1.00364e-15)
(3.31023e-18 7.36581e-16 -7.73342e-18)
(-5.01434e-20 1.61479e-18 -1.65805e-20)
(-2.2364e-22 8.85221e-21 -5.73436e-23)
(1.72031e-24 3.29644e-22 -1.47455e-24)
(-0 2.76997e-22 1.74761e-24)
(-8.73807e-25 2.63016e-22 1.31071e-23)
(1.20148e-24 1.85689e-21 6.24772e-23)
(-0 0 -0)
(-1.91145e-25 7.29792e-22 -1.74324e-22)
(-5.02439e-24 -1.07959e-21 2.75249e-23)
(1.0004e-21 -4.01484e-19 9.18207e-21)
(-3.61423e-20 -3.99555e-18 -1.21157e-18)
(1.828e-19 -6.81746e-17 -3.90369e-17)
(-3.87896e-23 -3.72796e-21 -3.39825e-21)
(7.13947e-22 -9.99745e-20 9.28168e-20)
(8.00927e-22 -2.30125e-18 1.89654e-18)
(-1.45164e-21 -1.6652e-19 1.23567e-19)
(-3.93339e-23 -1.34997e-21 8.16363e-22)
(-2.72121e-25 -5.24452e-24 2.22645e-24)
(0 -0 -0)
(-3.21598e-25 2.34519e-23 8.75735e-24)
(-6.67934e-23 8.2141e-21 1.00141e-21)
(-4.50333e-21 9.84829e-19 -8.56202e-21)
(-5.21443e-19 2.85664e-17 5.69846e-21)
(-2.07992e-16 -2.31194e-14 6.47936e-19)
(1.14888e-14 -3.73522e-12 4.29165e-16)
(-6.21589e-15 -9.75904e-12 2.2844e-15)
(-4.92453e-15 -2.2322e-13 1.21675e-16)
(-1.41534e-16 -5.35433e-15 3.57235e-18)
(2.91408e-18 -1.78822e-16 7.11387e-19)
(-9.79799e-17 -2.1183e-14 4.53474e-18)
(2.36354e-15 8.33235e-13 7.68503e-17)
(-2.40067e-14 2.92322e-12 1.67769e-15)
(1.07189e-14 3.91433e-11 5.81373e-14)
(1.94614e-14 3.56935e-12 1.48712e-16)
(8.55303e-14 -5.81853e-11 1.13074e-14)
(-5.26399e-14 -1.40755e-10 5.75999e-13)
(-4.09452e-14 -5.89216e-12 7.16527e-14)
(-3.84795e-16 -8.92387e-15 2.5373e-16)
(-7.48673e-19 -1.80428e-18 4.79809e-19)
(-1.41543e-21 1.92333e-20 8.89787e-22)
(-4.05708e-24 8.13395e-23 1.97906e-24)
(-4.94766e-26 2.67173e-24 9.89531e-26)
(-4.94766e-26 -1.97906e-25 -0)
(0 0 0)
(4.94766e-26 -1.4843e-25 -4.94766e-26)
(-0 4.45289e-25 -9.89531e-26)
(0 0 0)
(0 0 -0)
(-0 1.97906e-25 -0)
(-0 0 -0)
(-5.93719e-25 -9.55887e-23 -2.22645e-23)
(6.23405e-24 -1.61373e-21 -5.42659e-22)
(0 -0 -0)
(-4.48233e-26 6.00632e-24 -8.60607e-24)
(-0 -2.27254e-23 1.95878e-23)
(4.48233e-26 1.30884e-23 -7.8889e-24)
(-0 0 -0)
(4.48233e-26 -0 -0)
(0 0 -0)
(2.24117e-26 -8.96466e-26 -4.48233e-26)
(0 8.51643e-25 1.79293e-25)
(0 -0 0)
(2.15152e-24 2.17841e-22 0)
(-5.16902e-22 -2.98942e-20 4.16857e-24)
(1.46253e-19 -2.21583e-17 3.4098e-21)
(2.18467e-19 -4.57465e-16 1.17591e-19)
(-3.46795e-19 -2.48186e-17 1.10459e-20)
(-1.71421e-20 -5.94458e-19 3.33216e-22)
(0 -0 0)
(2.08249e-22 -5.0553e-20 1.44331e-23)
(1.24752e-20 2.45717e-18 1.00404e-22)
(-3.32247e-19 7.22601e-17 4.09732e-20)
(3.12547e-19 5.93787e-16 6.90861e-19)
(3.98654e-21 8.09672e-19 -3.00137e-22)
(7.50419e-19 -1.98009e-16 -2.135e-20)
(1.15401e-19 -2.18813e-15 1.44602e-17)
(-8.47724e-19 -1.00435e-16 2.49344e-18)
(-1.44933e-20 -3.4424e-19 1.70891e-20)
(-5.71049e-23 -7.71857e-22 5.45948e-23)
(-4.48233e-25 -5.1995e-24 3.58586e-25)
(0 0 -0)
(0 1.3447e-25 -4.48233e-26)
(-0 -8.96466e-26 -8.96466e-26)
(0 8.96466e-26 -4.48233e-26)
(-0 -8.96466e-26 -0)
(4.48233e-26 1.79293e-25 0)
(2.24117e-26 4.48233e-26 4.48233e-26)
(8.96466e-26 0 1.79293e-25)
(-4.48233e-26 8.96466e-26 -1.3447e-25)
(0 0 -0)
(0 4.48233e-26 -4.48233e-26)
(0 -0 -0)
(4.06077e-26 0 0)
(-0 -0 0)
(0 0 0)
(2.03038e-26 1.21823e-25 1.21823e-25)
(0 0 0)
(0 0 0)
(0 0 -0)
(-0 -0 4.06077e-26)
(0 -0 0)
(0 0 0)
(-8.12154e-26 -2.43646e-25 -8.12154e-26)
(-0 1.09641e-24 4.06077e-26)
(-0 0 -0)
(2.0446e-23 -1.68991e-20 8.60883e-24)
(-2.03038e-23 -2.3319e-21 -0)
(-1.27914e-24 -4.51963e-23 2.43646e-25)
(0 0 -0)
(0 -0 -0)
(-0 -0 0)
(-2.37555e-24 9.18058e-22 3.65469e-25)
(1.94917e-24 4.10365e-21 1.29945e-24)
(3.85773e-25 2.27403e-24 4.06077e-26)
(8.38549e-24 -7.81982e-22 -1.70552e-24)
(1.97962e-23 -4.10361e-20 4.38563e-22)
(-2.63544e-23 -2.83287e-21 1.08098e-22)
(-7.30938e-25 -1.84359e-23 1.21823e-24)
(0 0 -0)
(0 0 -0)
(-0 -0 -0)
(0 0 -1.21823e-25)
(-0 -0 -0)
(4.06077e-26 0 -4.06077e-26)
(0 4.06077e-26 -1.21823e-25)
(-0 -0 -0)
(-0 0 -0)
(-2.03038e-26 1.21823e-25 -0)
(8.12154e-26 1.62431e-25 -8.12154e-26)
(-0 0 -0)
(8.12154e-26 8.12154e-26 -8.12154e-26)
(-6.09115e-26 4.06077e-26 4.06077e-26)
(3.67885e-26 -0 -3.67885e-26)
(-3.67885e-26 3.67885e-26 -3.67885e-26)
(3.67885e-26 7.35771e-26 0)
(0 0 0)
(3.67885e-26 7.35771e-26 -3.67885e-26)
(-7.35771e-26 0 0)
(3.67885e-26 7.35771e-26 -0)
(3.67885e-26 7.35771e-26 7.35771e-26)
(0 7.35771e-26 3.67885e-26)
(-0 0 0)
(-3.67885e-26 7.35771e-26 -0)
(0 3.67885e-26 -3.67885e-26)
(3.67885e-26 3.67885e-26 -1.10366e-25)
(-3.67885e-26 -1.69227e-24 -0)
(0 0 -0)
(0 3.67885e-26 0)
(0 0 0)
(-7.35771e-26 1.47154e-25 0)
(3.67885e-26 7.35771e-26 -0)
(-3.67885e-26 -2.94308e-25 3.67885e-26)
(-0 -0 0)
(-0 -0 3.67885e-26)
(-0 -2.5752e-25 -0)
(-0 -2.46483e-24 7.35771e-26)
(-3.67885e-26 -7.35771e-25 -3.67885e-26)
(0 3.67885e-26 0)
(0 0 0)
(0 0 0)
(3.67885e-26 7.35771e-26 -3.67885e-26)
(-0 -0 -0)
(0 0 -0)
(0 0 -3.67885e-26)
(0 -0 0)
(0 0 -0)
(0 0 -0)
(0 0 -0)
(-3.67885e-26 -7.35771e-26 -3.67885e-26)
(0 0 0)
(0 3.67885e-26 -3.67885e-26)
(0 0 -0)
(0 6.66571e-26 6.66571e-26)
(0 0 0)
(0 -0 -0)
(0 3.33286e-26 9.99857e-26)
(0 -0 0)
(0 -0 0)
(-0 -6.66571e-26 -6.66571e-26)
(0 -0 0)
(0 -0 -0)
(0 0 0)
(0 6.66571e-26 0)
(0 -0 0)
(0 0 0)
(-0 -0 -0)
(0 6.66571e-26 0)
(-0 3.33286e-26 -6.66571e-26)
(0 0 -0)
(0 -6.66571e-26 3.33286e-26)
(0 0 -0)
(3.33286e-26 6.66571e-26 3.33286e-26)
(0 0 0)
(0 0 0)
(-3.33286e-26 3.33286e-26 3.33286e-26)
(0 0 0)
(0 6.66571e-26 -3.33286e-26)
(-0 3.33286e-26 -0)
(3.33286e-26 0 3.33286e-26)
(0 3.33286e-26 3.33286e-26)
(-0 -0 0)
(0 0 0)
(-0 3.33286e-26 -0)
(0 -0 0)
(0 0 0)
(0 0 0)
(0 0 0)
(3.33286e-26 3.33286e-26 6.66571e-26)
(0 -6.66571e-26 0)
(0 0 0)
(-0 3.33286e-26 -0)
(0 0 0)
(3.0194e-26 0 0)
(-0 0 0)
(-0 6.0388e-26 -3.0194e-26)
(0 0 6.0388e-26)
(-0 -0 -3.0194e-26)
(0 0 0)
(0 1.81164e-25 -1.20776e-25)
(3.0194e-26 3.0194e-26 -0)
(0 0 0)
(0 0 0)
(0 -0 0)
(0 0 0)
(0 6.0388e-26 0)
(0 0 0)
(3.0194e-26 0 3.0194e-26)
(-0 0 0)
(0 0 0)
(0 -0 0)
(0 0 0)
(-0 -0 -0)
(-3.0194e-26 3.0194e-26 -0)
(0 0 0)
(0 0 0)
(0 0 0)
(-3.0194e-26 -6.0388e-26 9.05821e-26)
(-0 0 -0)
(-3.0194e-26 -0 -6.0388e-26)
(0 -0 0)
(3.0194e-26 -0 -6.0388e-26)
(-3.0194e-26 3.0194e-26 -0)
(0 0 -0)
(0 0 0)
(0 0 0)
(3.0194e-26 3.0194e-26 6.0388e-26)
(-0 9.05821e-26 -9.05821e-26)
(0 0 0)
(-3.0194e-26 3.0194e-26 -0)
(3.0194e-26 3.0194e-26 0)
(-0 0 0)
(0 0 0)
(-0 -0 0)
(-2.73543e-26 2.73543e-26 -0)
(0 0 -0)
(0 -0 -0)
(0 0 -1.09417e-25)
(0 0 0)
(-2.73543e-26 -8.20628e-26 1.09417e-25)
(0 0 0)
(-2.73543e-26 5.47086e-26 -5.47086e-26)
(0 0 -0)
(0 5.47086e-26 5.47086e-26)
(-0 0 0)
(-0 -0 -0)
(-0 -0 -1.09417e-25)
(0 0 0)
(0 5.47086e-26 5.47086e-26)
(2.73543e-26 5.47086e-26 -1.09417e-25)
(0 0 -0)
(0 0 0)
(0 0 0)
(-0 0 -0)
(-2.73543e-26 2.73543e-26 -0)
(0 0 -1.09417e-25)
(2.73543e-26 2.73543e-26 -0)
(-0 -0 -0)
(-2.73543e-26 -0 5.47086e-26)
(0 5.47086e-26 0)
(0 0 -0)
(2.73543e-26 5.47086e-26 0)
(0 0 0)
(-2.73543e-26 5.47086e-26 0)
(0 0 0)
(2.73543e-26 2.73543e-26 0)
(-0 0 0)
(2.73543e-26 -2.73543e-26 -1.09417e-25)
(-2.73543e-26 2.73543e-26 -5.47086e-26)
(0 0 0)
(0 -0 -0)
(-2.73543e-26 0 0)
(0 0 0)
(0 0 0)
(4.95632e-26 -2.47816e-26 4.95632e-26)
(-0 -0 -4.95632e-26)
(0 0 0)
(-0 4.95632e-26 -0)
(-0 4.95632e-26 -0)
(-4.95632e-26 -0 9.91264e-26)
(2.47816e-26 0 -4.95632e-26)
(-0 -0 0)
(4.95632e-26 4.95632e-26 -0)
(0 -0 0)
(0 0 0)
(0 0 -0)
(0 2.47816e-26 9.91264e-26)
(0 0 -9.91264e-26)
(-0 0 0)
(-0 -0 -0)
(0 0 -0)
(4.95632e-26 4.95632e-26 -0)
(-0 2.47816e-26 -0)
(-0 2.47816e-26 -4.95632e-26)
(-9.91264e-26 -0 -0)
(0 -2.47816e-26 4.95632e-26)
(0 0 0)
(4.95632e-26 9.91264e-26 9.91264e-26)
(-4.95632e-26 4.95632e-26 -4.95632e-26)
(-0 -0 0)
(-4.95632e-26 -0 -0)
(0 0 0)
(-0 2.47816e-26 -0)
(0 -0 0)
(-0 -0 -0)
(0 -2.47816e-26 4.95632e-26)
(-0 2.47816e-26 -4.95632e-26)
(0 4.95632e-26 -4.95632e-26)
(0 0 0)
(0 0 0)
(-2.47816e-26 2.47816e-26 9.91264e-26)
(-0 2.47816e-26 4.95632e-26)
(0 0 -4.95632e-26)
(-6.73527e-26 -0 -4.49018e-26)
(2.24509e-26 0 4.49018e-26)
(0 0 4.49018e-26)
(-0 0 -0)
(0 0 0)
(0 0 0)
(0 0 0)
(-0 2.24509e-26 -0)
(0 0 0)
(0 0 0)
(4.49018e-26 4.49018e-26 -8.98036e-26)
(-4.49018e-26 0 8.98036e-26)
(0 0 0)
(0 0 0)
(0 -0 0)
(0 0 1.79607e-25)
(-0 0 0)
(6.73527e-26 -0 -0)
(-4.49018e-26 8.98036e-26 -0)
(0 0 0)
(0 0 0)
(-0 0 0)
(-4.49018e-26 4.49018e-26 -0)
(2.24509e-26 4.49018e-26 0)
(-0 -0 0)
(2.24509e-26 0 0)
(0 4.49018e-26 0)
(0 0 -8.98036e-26)
(-2.24509e-26 0 0)
(0 0 0)
(0 0 -0)
(0 0 4.49018e-26)
(4.49018e-26 4.49018e-26 8.98036e-26)
(-0 -0 -0)
(0 -0 0)
(2.24509e-26 4.49018e-26 0)
(-2.24509e-26 4.49018e-26 0)
(-0 -0 -0)
(2.24509e-26 -2.24509e-26 -0)
(-0 4.49018e-26 -0)
(0 0 4.06788e-26)
(6.10182e-26 -0 -0)
(-4.06788e-26 8.13576e-26 8.13576e-26)
(8.13576e-26 2.03394e-26 8.13576e-26)
(-0 0 0)
(-0 0 0)
(4.06788e-26 -0 1.62715e-25)
(-6.10182e-26 -2.03394e-26 -0)
(4.06788e-26 0 -4.06788e-26)
(-0 0 0)
(-0 -0 -0)
(-0 6.10182e-26 -0)
(-4.06788e-26 2.03394e-26 8.13576e-26)
(0 -0 0)
(0 0 0)
(0 -0 0)
(0 0 -0)
(0 4.06788e-26 0)
(4.06788e-26 -4.06788e-26 -4.06788e-26)
(0 0 0)
(4.06788e-26 -0 -8.13576e-26)
(-4.06788e-26 -0 -0)
(0 0 -0)
(4.06788e-26 0 -1.22036e-25)
(-0 0 0)
(4.06788e-26 0 0)
(-4.06788e-26 0 0)
(4.06788e-26 -0 4.06788e-26)
(0 -0 -0)
(0 0 0)
(-0 0 -0)
(-4.06788e-26 2.03394e-26 -8.13576e-26)
(0 0 -0)
(0 0 -0)
(0 4.06788e-26 -4.06788e-26)
(0 -0 0)
(0 0 0)
(-0 0 0)
(0 4.06788e-26 0)
(0 0 0)
(-0 1.84265e-26 -0)
(3.6853e-26 3.6853e-26 1.10559e-25)
(0 3.6853e-26 3.6853e-26)
(-3.6853e-26 -1.84265e-26 0)
(0 0 -0)
(7.37059e-26 3.6853e-26 0)
(0 7.37059e-26 0)
(-7.37059e-26 0 0)
(3.6853e-26 3.6853e-26 -0)
(-0 3.6853e-26 -0)
(-3.6853e-26 1.84265e-26 -3.6853e-26)
(0 0 -0)
(3.6853e-26 -0 -0)
(0 0 0)
(-0 1.84265e-26 -0)
(3.6853e-26 3.6853e-26 0)
(0 1.84265e-26 -3.6853e-26)
(-0 -0 0)
(0 0 -0)
(-0 -0 -0)
(3.6853e-26 1.84265e-26 0)
(-0 0 0)
(3.6853e-26 3.6853e-26 -0)
(0 -0 -0)
(0 0 0)
(0 -0 -0)
(3.6853e-26 0 3.6853e-26)
(-3.6853e-26 1.84265e-26 -3.6853e-26)
(3.6853e-26 1.84265e-26 -3.6853e-26)
(0 0 0)
(3.6853e-26 1.84265e-26 -3.6853e-26)
(-0 -1.84265e-26 3.6853e-26)
(0 0 0)
(0 0 0)
(0 -0 0)
(3.6853e-26 1.84265e-26 -1.10559e-25)
(0 -0 0)
(0 0 0)
(0 -0 0)
(0 0 0)
(210.305 -174769 -777.85)
(168.24 -171750 -562.041)
(154.239 -167201 -220.849)
(215.02 -161549 255.618)
(237.674 -158083 668.26)
(130.213 -158956 855.74)
(-35.8437 -163632 896.13)
(-100.016 -168201 850.735)
(9.84177 -167064 655.448)
(163.339 -161951 408.464)
(229.325 -157080 309.357)
(226.353 -153224 427.917)
(218.039 -149927 701.453)
(215.083 -146660 995.656)
(194.535 -143791 1210.61)
(155.356 -142064 1357.87)
(108.403 -141638 1465.57)
(43.6791 -142905 1502.28)
(-60.2803 -146892 1406.84)
(-161.985 -152725 1087.67)
(-125.004 -154588 509.559)
(63.5227 -148423 -149.571)
(207.523 -139504 -585.644)
(213.592 -133871 -723.139)
(156.285 -131808 -729.567)
(91.0812 -132154 -730.814)
(10.2177 -134130 -728.604)
(-70.302 -136932 -636.75)
(-89.9879 -138465 -344.867)
(-23.9546 -136908 90.1031)
(54.4423 -133783 424.955)
(73.009 -132139 498.937)
(25.3151 -132369 354.663)
(-175.279 -136536 157.875)
(-722.125 -155827 54.5271)
(-1392.49 -189165 -8.23848)
(-1185.66 -200554 -264.317)
(-394.075 -185733 -653.624)
(58.1313 -179467 -928.143)
(190.029 -177615 -937.757)
(451.588 -113666 -1984.28)
(378.002 -115910 -1652.61)
(328.901 -116175 -1058.06)
(406.241 -116312 -218.457)
(468.57 -119037 625.49)
(305.003 -124069 1228.83)
(-55.4782 -129599 1602.21)
(-287.477 -132915 1781.44)
(-137.271 -132539 1614.95)
(229.506 -131685 1120.96)
(498.439 -132963 733.783)
(571.793 -135734 835.551)
(577.514 -138494 1474.21)
(618.476 -140759 2364.05)
(641.118 -143024 3148.07)
(589.471 -145587 3724.43)
(473.063 -148236 4180.62)
(273.179 -151048 4528.39)
(-96.1274 -155311 4614.35)