/*--------------------------------*- C++ -*----------------------------------*\
| =========                 |                                                 |
| \\      /  F ield         | OpenFOAM: The Open Source CFD Toolbox           |
|  \\    /   O peration     | Version:  5.0                                   |
|   \\  /    A nd           | Web:      www.OpenFOAM.org                      |
|    \\/     M anipulation  |                                                 |
\*---------------------------------------------------------------------------*/
FoamFile
{
    version     2.0;
    format      ascii;
    class       volVectorField;
    location    "50.4676134421789371";
    object      TTDiss;
}
// * * * * * * * * * * * * * * * * * * * * * * * * * * * * * * * * * * * * * //

dimensions      [0 -2 0 2 0 0 0];

internalField   nonuniform List<vector> 
60000
(
(9.22162 2.78087e+06 68.3537)
(5.21455 2.82994e+06 97.6564)
(0.30633 2.80869e+06 132.42)
(25.1987 2.62707e+06 206.736)
(33.123 2.32783e+06 159.539)
(2.00354 2.16105e+06 19.965)
(2.04365 2.20959e+06 11.9071)
(0.210373 2.30798e+06 49.3677)
(0.0099692 2.37638e+06 33.4569)
(1.73215 2.48481e+06 5.73531)
(7.12812 2.65521e+06 2.45806)
(4.92125 2.80175e+06 36.2185)
(0.0503199 2.83435e+06 101.209)
(1.54516 2.73663e+06 146.28)
(0.454758 2.61813e+06 108.752)
(0.374008 2.61812e+06 28.5844)
(0.423525 2.74213e+06 0.364253)
(0.880727 2.89081e+06 37.2205)
(8.0819 2.93795e+06 124.208)
(15.2091 2.89229e+06 202.407)
(14.4341 2.80639e+06 144.26)
(4.46026 2.73335e+06 27.8306)
(0.0120548 2.75046e+06 0.0325082)
(1.90038 2.84605e+06 2.32508)
(3.36613 2.96589e+06 0.0081115)
(7.59839 3.08382e+06 7.45979)
(26.4461 3.25145e+06 17.3238)
(51.2127 3.54068e+06 1.50067)
(20.6361 3.84918e+06 65.3598)
(7.07351 3.86655e+06 335.388)
(58.3499 3.51013e+06 346.61)
(37.1074 3.10632e+06 98.0347)
(0.0128214 2.90167e+06 7.27819)
(44.3878 2.9679e+06 5.21123)
(67.5483 3.26786e+06 172.541)
(0.310136 3.43236e+06 695.657)
(48.4934 3.10502e+06 491.514)
(24.1935 2.69057e+06 53.305)
(0.337443 2.58996e+06 0.0697155)
(8.40748 2.68111e+06 17.9443)
(1.38134 59156.3 2088.66)
(2.82396 64365.8 1699.26)
(31.2645 74895.3 1198.1)
(92.6588 85298.8 827.646)
(78.7258 89390.9 404.177)
(5.76762 92546.9 59.7361)
(11.463 96703.5 2.99631)
(25.5655 92540 3.3164)
(34.559 80802.4 35.4162)
(55.1553 66306.3 219.637)
(47.6158 52926.4 448.412)
(9.06934 46599.5 574.392)
(4.94338 49510.2 532.542)
(27.47 59627.4 340.456)
(8.48436 72464.8 91.6219)
(9.92053 79721.4 5.2551)
(57.458 71485.7 156.774)
(47.6613 50342 349.011)
(10.1244 29304.8 526.959)
(0.148255 18132.5 647.783)
(0.350278 12587 439.907)
(0.40553 9061.11 86.5257)
(10.7969 6598.08 1.75942)
(24.1438 4837.27 23.0982)
(24.487 3954.62 5.35623)
(26.3893 3444.17 2.23123)
(49.0829 2660.53 13.2483)
(66.1352 1799.96 1.70118)
(12.5139 1630.05 46.1584)
(35.8926 2355.85 188.816)
(147.785 3410.8 74.3222)
(109.28 4668.3 40.2831)
(15.0983 6776.68 320.282)
(10.0973 11099.8 435.063)
(16.3721 19340 552.807)
(27.2583 31860.4 576.463)
(189.305 41857 40.8051)
(99.9636 49402.2 427.109)
(0.869939 56738.4 1469.17)
(7.19694 58216 2021.8)
(3.40429 544658 1237.32)
(0.488619 538761 1020.64)
(18.5401 522446 674.421)
(54.2171 488264 439.258)
(46.0573 442699 266.052)
(7.01952 418760 95.368)
(1.50735 427525 11.1793)
(8.7564 447601 2.48626)
(20.119 470303 30.1681)
(45.2024 500829 149.22)
(47.2121 534432 359.139)
(8.86528 557527 561.428)
(7.17214 564731 610.495)
(36.3815 555744 445.812)
(22.0508 544262 183.929)
(0.304136 555374 19.8052)
(40.886 583610 5.13885)
(80.433 596744 26.6366)
(42.6632 571349 60.8373)
(4.97823 550433 144.469)
(0.0713379 564941 131.259)
(1.11112 591838 10.4854)
(6.95909 626919 21.8337)
(9.34012 668658 24.8184)
(7.41127 706312 0.642324)
(14.2096 733890 43.0537)
(45.7207 756911 90.3049)
(68.9586 769931 57.937)
(15.7281 760860 0.511522)
(18.6909 725821 23.7338)
(87.8976 673149 4.51663)
(68.9708 630411 56.1839)
(14.817 614442 262.18)
(0.488188 626969 366.561)
(0.249354 653580 356.23)
(37.7825 653870 192.225)
(124.04 597931 0.175775)
(66.2203 537339 229.853)
(1.90819 524663 707.536)
(5.58016 537616 1117.44)
(1.01954 94516.3 129.356)
(0.00782355 97562 151.034)
(1.92784 93896.2 112.261)
(7.79848 80701.2 89.4498)
(7.48225 64606.7 86.0126)
(0.922683 55640.5 53.2737)
(0.834519 54826 10.2119)
(1.80897 57077.6 0.755863)
(1.60371 61726.3 7.83701)
(3.72745 72030.9 2.08104)
(4.43894 87442.5 9.32002)
(0.25052 101500 84.6242)
(4.11764 107523 177.902)
(12.0266 102077 176.291)
(7.27455 91201.8 98.0309)
(0.0381938 85564.2 31.3652)
(18.9177 90018 11.021)
(59.0132 99135 19.2411)
(43.5169 100368 18.0983)
(0.513205 95745 3.27689)
(16.4196 105912 60.477)
(18.8988 132106 36.7961)
(6.77332 161799 0.854584)
(0.771467 183477 0.433231)
(0.149104 189362 3.02731)
(2.68703 188535 29.8842)
(20.0175 199266 84.358)
(61.3968 220226 98.7464)
(43.973 224786 18.7727)
(0.0446416 205512 13.2961)
(28.2301 180935 43.4934)
(38.1237 164579 9.24973)
(13.1218 158608 4.17689)
(0.168702 161098 22.1767)
(5.50558 163785 49.5648)
(0.633657 148548 67.0813)
(22.3799 118891 23.1384)
(17.4039 96001.4 0.711325)
(0.826936 87382.3 21.5786)
(1.06849 89418.5 63.8564)
(0.0150801 3137.13 10.4491)
(0.414162 3498.42 30.1866)
(0.591882 3550.62 26.6257)
(0.550677 2758.87 18.5504)
(0.437474 1694.41 22.1961)
(0.0109421 1180.37 17.1285)
(0.721301 1231.43 1.11361)
(1.4038 1468.32 9.48364)
(0.666447 1564.42 28.9143)
(0.644041 1883.6 20.1722)
(0.299451 2498.03 0.931768)
(1.29619 3007.36 20.92)
(8.22625 3263.85 80.3854)
(7.72265 3056.81 70.3586)
(1.53512 2360.36 21.4568)
(0.731878 1822.33 0.901793)
(12.7591 2216.98 0.0509781)
(46.5576 3772.61 7.93326)
(52.743 4733.05 38.202)
(1.47858 3444.86 2.48932)
(43.8692 2791.76 67.3126)
(77.7147 4895.36 134.511)
(31.6865 8364.98 57.311)
(1.01136 9343.54 8.16248)
(4.70203 7276 0.709722)
(6.07608 5113.2 1.1917)
(4.9971 5160.43 10.1748)
(21.0458 9366.33 34.8809)
(34.2825 15230.2 15.2215)
(3.33756 14958 9.14414)
(11.0589 10993.3 52.7244)
(23.4674 8328.64 30.2025)
(10.805 7225.67 2.4575)
(0.0216602 7391.93 0.0800193)
(6.11993 8799.34 4.28179)
(2.05253 8591.76 22.9624)
(2.36531 5839.27 22.6732)
(3.48664 3668.19 5.35826)
(0.00144228 2951.3 0.295806)
(0.79832 2938.72 0.486726)
(0.130769 33.5513 0.688766)
(0.138223 15.6396 8.19348)
(0.211568 4.35759 11.7132)
(0.0592987 0.0075519 6.24051)
(0.0515416 6.05794 5.91779)
(0.0193905 14.4198 4.89799)
(0.106413 4.05596 0.016126)
(0.480054 3.23338 8.52808)
(0.303923 15.1171 22.8645)
(0.234803 25.468 15.4675)
(0.306881 52.5761 1.50288)
(0.160923 38.6992 4.79491)
(4.03776 0.116165 34.2451)
(5.09971 49.2578 42.411)
(0.920995 110.744 9.8197)
(0.123612 121.724 0.516039)
(2.63061 20.0077 6.22678)
(20.3964 142.818 0.176356)
(48.1175 727.864 20.8057)
(9.3459 559.861 15.7559)
(29.9784 68.6654 33.9101)
(93.5751 10.0789 169.74)
(39.5672 41.3341 109.785)
(0.00341693 1.91428 14.3216)
(15.7781 54.0566 0.0870786)
(12.7576 72.4231 0.85179)
(0.842339 62.0486 0.0848069)
(0.194662 0.206086 2.75505)
(8.3267 610.322 9.54679)
(7.98745 1477.87 0.0437483)
(0.750117 750.976 19.8215)
(11.1393 114.939 16.2771)
(8.20785 2.59297 0.708361)
(0.723671 0.0843685 0.625654)
(1.75949 56.3978 2.05824)
(2.49482 235.878 11.9508)
(0.060585 133.788 16.8664)
(1.20918 13.3017 4.5878)
(0.00301784 4.80318 0.230522)
(0.633219 25.9263 0.00877222)
(0.0818921 0.961661 0.0521183)
(0.00344704 2.53142 1.17756)
(0.026063 10.6339 3.98417)
(0.00169197 17.6902 2.39919)
(0.00406738 24.4837 1.52928)
(0.0306362 33.9431 1.43275)
(0.000497657 28.9615 0.00541918)
(0.067219 10.9924 2.77669)
(0.0938522 2.00274 7.91348)
(0.0778776 0.546124 6.23141)
(0.124051 0.287417 0.749774)
(0.00169609 1.90105 0.79178)
(0.587596 4.4256 6.73094)
(1.31805 73.6231 13.0937)
(0.364466 155.2 6.10668)
(0.00872084 171.465 0.0011105)
(0.000824602 113.674 3.15815)
(3.4535 0.386685 1.73667)
(28.7129 249.104 6.47151)
(16.9574 444.334 19.9481)
(11.2398 108.821 5.97443)
(70.883 2.05019 113.875)
(27.7102 98.5055 83.8797)
(1.35567 329.898 4.67341)
(13.0922 314.526 2.1394)
(5.93851 76.4946 1.18104)
(0.790108 10.6048 0.103803)
(0.139424 33.8755 0.0352052)
(0.0150729 1.91184 0.633276)
(1.62946 155.462 0.802777)
(1.01293 236.605 1.83782)
(0.536672 22.8199 5.48444)
(2.57585 36.3745 0.364761)
(1.10326 110.399 0.835512)
(0.00992787 61.6376 1.032)
(0.556708 0.866824 3.71299)
(0.0706596 0.783713 8.13424)
(0.15652 11.5258 2.63556)
(0.0366439 29.457 0.00243515)
(0.0947461 10.2085 0.0979947)
(0.00584812 1.60819 0.0377179)
(0.000149285 1.00633 0.0945773)
(0.00017781 2.55228 0.639812)
(0.00190416 3.54054 0.519373)
(0.00269747 3.85817 0.259849)
(0.00317634 5.91918 0.424605)
(0.00924886 8.72779 0.0600997)
(0.000179637 5.68881 0.397662)
(0.0112618 1.82806 1.5094)
(0.0223477 0.674242 1.54356)
(0.0353802 0.0564594 0.333689)
(0.00123168 0.277641 0.112913)
(0.102008 0.0184591 1.0517)
(0.232607 6.78128 2.27581)
(0.02963 24.5822 1.70936)
(0.0048607 32.9759 0.142497)
(0.235103 42.5928 0.502921)
(0.00144671 20.0946 0.962158)
(9.83942 44.1562 1.3778)
(15.4009 297.94 9.94399)
(2.50883 195.882 0.425688)
(37.0325 2.97634 39.5729)
(11.1609 132.776 25.2895)
(1.87728 270.696 0.180694)
(5.23893 104.811 1.40955)
(1.09223 14.33 0.491126)
(0.14929 0.00985975 0.00472088)
(0.0336792 0.0770854 0.000147721)
(0.0203205 5.96628 0.0109402)
(0.00562587 0.237338 0.102561)
(0.118585 22.7251 0.00609078)
(0.091896 24.7169 0.685577)
(0.0416455 0.0829981 0.595569)
(0.24757 17.0246 0.0208444)
(0.087181 25.9041 0.191308)
(0.00494594 7.95315 0.478669)
(0.0227263 0.438485 1.80339)
(0.000387581 2.2814 1.16883)
(0.00597132 8.65063 0.0183281)
(0.00116908 6.07881 0.0854449)
(0.000171745 0.362282 0.0194654)
(1.18851e-07 0.229386 0.0157293)
(8.77171e-08 0.310617 0.0724755)
(0.000575294 0.323225 0.0678098)
(0.00125043 0.114531 0.0169089)
(0.000150246 0.133777 0.0624863)
(0.000589526 0.466518 0.0425453)
(0.00146231 0.69603 0.0149947)
(0.000139628 0.294446 0.141131)
(0.00460094 0.0632953 0.245054)
(0.00949905 0.00243681 0.102404)
(0.000453776 0.124384 0.00536688)
(0.0330211 0.0278953 0.200196)
(0.0600065 0.566488 0.353563)
(0.000248895 2.60334 0.290579)
(0.0423809 2.40687 0.075153)
(0.0553876 3.86288 0.0347267)
(0.360341 15.1148 0.348823)
(1.4527 0.0732824 0.129107)
(7.05443 105.108 3.02639)
(0.163202 155.501 0.000495979)
(12.3664 4.31782 8.24694)
(3.23557 79.7062 4.50939)
(0.781218 94.8014 0.00941945)
(1.44582 20.4031 0.33329)
(0.288751 1.99225 0.0697049)
(0.0148509 0.351511 0.00545024)
(0.00169993 0.0329548 8.06021e-05)
(0.00112081 0.0821842 0.000649021)
(0.00135134 0.294354 0.000451293)
(0.00064451 0.0167354 0.00827661)
(0.00395944 1.39479 0.00241438)
(0.00702939 1.97821 0.0748351)
(0.00055384 0.0158635 0.0286022)
(0.0150461 1.379 0.00134435)
(0.00582813 1.65783 0.0174175)
(0.000187983 0.440163 0.157948)
(0.000616354 0.24191 0.220147)
(0.000114849 0.592974 0.0209913)
(1.20109e-06 0.736709 0.0105907)
(1.89343e-06 0.0258543 0.00149581)
(1.24781e-05 0.0232204 0.0049234)
(2.69084e-05 0.0246209 0.0111804)
(9.23806e-06 0.0238354 0.00668597)
(7.27963e-05 0.00269358 0.000406159)
(0.000174387 2.57092e-06 0.00112589)
(4.01635e-07 1.4616e-05 0.00328934)
(0.000155734 0.0126066 5.37265e-06)
(0.000189445 0.0280813 0.00367357)
(0.00068775 0.00236303 0.0165371)
(0.00397273 0.0149999 0.0161531)
(0.000106997 0.0980966 0.000397321)
(0.00769004 0.0287364 0.0334832)
(0.0122527 0.144776 0.040123)
(0.000112528 0.466175 0.0284507)
(0.0179307 0.147858 0.0122448)
(8.40127e-05 0.000405247 1.46701e-06)
(0.127317 2.66521 0.0653818)
(0.0363024 4.96052 0.000901386)
(1.49014 14.8901 0.528184)
(0.0127047 59.9473 0.0588565)
(2.52862 1.9831 1.13075)
(0.759729 27.3532 0.695367)
(0.192731 23.6152 0.0057373)
(0.301352 4.50352 0.0541932)
(0.0504117 0.319338 0.00957041)
(0.00351974 0.00467219 0.00148897)
(6.50096e-06 0.00887394 0.000444672)
(9.89901e-08 0.00388456 0.000354283)
(0.000185275 0.00291386 0.000364225)
(6.7116e-07 0.0117912 2.0914e-07)
(0.000188047 0.00360594 0.000251875)
(6.98826e-07 0.0324375 0.000413073)
(0.000759819 0.100329 0.0033957)
(1.92329e-06 0.00393451 0.000280706)
(0.000791582 0.0554091 2.87086e-05)
(0.000146512 0.0720971 0.00210544)
(3.42262e-07 0.0279217 0.0142083)
(6.90444e-06 0.0241206 0.00362104)
(1.89003e-07 0.0467703 0.000334132)
(1.175e-06 0.00305974 0.000376555)
(8.83336e-07 0.00334369 0.000263708)
(7.88923e-08 0.0016135 0.000321177)
(9.90589e-07 0.00138688 0.000286487)
(3.79319e-07 0.00286642 0.000197914)
(1.21948e-07 8.26774e-06 7.71593e-06)
(1.02753e-07 5.70588e-09 9.52651e-05)
(4.75411e-07 1.97481e-07 1.0049e-07)
(1.36382e-06 0.00255779 0.000318121)
(8.09736e-07 0.00304988 0.00160221)
(0.000147845 0.00329989 0.00101972)
(0.000118449 0.0219076 1.77814e-06)
(0.000444087 0.00788508 0.00354057)
(0.00245418 0.0111043 0.00309673)
(0.000234809 0.0827288 0.00147292)
(0.00255648 0.0200013 0.000574781)
(0.00210165 0.0365107 0.000489849)
(0.00695474 0.0312108 0.00313389)
(0.00146688 1.40885 0.00262819)
(0.126721 0.44392 0.0358713)
(0.0208354 11.3763 0.0278539)
(0.280796 0.709486 0.0990661)
(0.126282 5.97505 0.0897577)
(0.0277576 4.65704 0.000432434)
(0.0463727 0.720263 0.00608881)
(0.00426722 0.0345175 0.00155603)
(0.000160835 0.00316799 0.00047101)
(0.000172784 8.03291e-09 1.5146e-06)
(2.71545e-07 0.00273463 3.39591e-08)
(3.03551e-11 1.29279e-06 2.50997e-08)
(5.37185e-09 9.71893e-06 2.34499e-08)
(1.30086e-09 4.9496e-06 1.29125e-08)
(1.00427e-08 0.0027766 8.92975e-08)
(2.40643e-11 1.4766e-06 4.2145e-08)
(8.17852e-09 0.00354281 4.79902e-11)
(3.95505e-10 4.66205e-05 1.2519e-08)
(1.48549e-07 0.00302759 0.000341347)
(1.17551e-07 0.00178458 2.81926e-06)
(2.71497e-07 0.00327854 0.000445492)
(8.54516e-09 0.00282959 2.71598e-06)
(2.27184e-08 6.05037e-07 9.2179e-09)
(1.21485e-08 1.13115e-05 0.000343528)
(1.33217e-08 1.76218e-05 0.0004087)
(2.79305e-08 5.61802e-06 6.70104e-06)
(1.27845e-09 3.52218e-07 6.82995e-07)
(7.59758e-12 1.2813e-08 4.89739e-08)
(5.04902e-11 4.80657e-07 4.38559e-09)
(9.24805e-10 1.13738e-06 1.51561e-08)
(4.73954e-08 3.45262e-06 1.0257e-07)
(1.89333e-07 1.02585e-05 1.35849e-08)
(0.000174322 5.90978e-06 8.19093e-05)
(3.19165e-06 0.00128393 7.03852e-07)
(0.000670962 0.00158533 4.24217e-06)
(0.000224217 0.000865362 0.00044011)
(1.18179e-07 0.0181795 0.000404976)
(0.000162777 0.0076869 1.69223e-06)
(0.000222409 0.00202399 1.989e-06)
(0.000133406 0.00564218 0.000317909)
(0.000203729 0.0667504 0.00165827)
(0.00549017 0.000283784 0.000212455)
(0.00380685 0.97351 0.00135036)
(0.0151028 0.158841 0.00433616)
(0.0124739 0.70113 0.00513845)
(0.00119841 0.618795 0.000306676)
(0.00238371 0.0550959 0.000296228)
(0.00068621 0.00179601 0.000434493)
(0.000189591 0.00231061 1.23049e-06)
(1.35115e-07 4.30125e-06 1.63018e-09)
(8.45753e-11 4.96373e-08 5.44459e-13)
(3.45724e-13 2.47781e-08 1.3221e-12)
(1.30874e-13 4.08852e-08 7.36831e-13)
(2.05775e-14 1.27721e-08 3.19645e-13)
(1.73409e-13 4.77957e-09 2.93374e-12)
(5.50134e-15 6.59029e-08 2.9847e-12)
(2.29145e-13 2.60287e-09 2.34261e-11)
(5.44096e-13 5.92469e-09 1.72847e-09)
(2.24534e-10 1.54013e-08 5.20694e-11)
(1.73789e-11 1.7934e-06 3.90491e-09)
(2.09624e-10 1.29688e-06 3.48307e-07)
(3.21894e-09 3.32852e-07 7.55859e-07)
(2.46961e-12 4.04234e-08 3.8723e-08)
(5.74417e-12 2.55489e-07 1.98381e-07)
(7.19663e-13 3.23176e-07 3.38421e-07)
(6.18728e-12 1.44231e-08 1.80704e-08)
(3.474e-13 1.19997e-10 1.25981e-10)
(2.55418e-15 6.99522e-13 2.05049e-12)
(3.03039e-16 3.10624e-12 1.72767e-13)
(3.67778e-13 5.24394e-10 1.38806e-11)
(1.28729e-10 1.00054e-08 1.62696e-09)
(6.01623e-08 5.0121e-07 1.04844e-09)
(1.35237e-07 1.63103e-06 2.79145e-11)
(4.07743e-07 0.00187242 2.12158e-08)
(1.08819e-06 2.1407e-05 2.30409e-07)
(7.33858e-07 0.00183031 2.45223e-07)
(3.11185e-07 0.00204768 2.23909e-08)
(4.4433e-07 0.00195797 1.44203e-09)
(1.10478e-07 8.13409e-06 7.96252e-09)
(3.83747e-09 2.9776e-05 9.94342e-09)
(0.000176113 0.00172194 1.04943e-08)
(0.000158983 0.00145437 2.62561e-07)
(0.000817838 0.041024 2.63627e-06)
(0.000688361 0.0252497 0.00039177)
(0.000672717 0.0397913 1.63835e-05)
(2.59387e-09 0.0420841 7.623e-09)
(9.75551e-05 0.00711298 0.000401153)
(0.0001828 0.00210413 1.43296e-06)
(2.55941e-07 1.50142e-06 2.09994e-09)
(3.11866e-10 8.85892e-10 2.78778e-12)
(3.96891e-13 7.5936e-12 4.24461e-15)
(4.42228e-16 5.94236e-13 8.09329e-18)
(4.47985e-18 6.35704e-13 1.24848e-17)
(6.57224e-20 1.9227e-13 5.37479e-18)
(1.91348e-18 1.01088e-13 1.00442e-16)
(1.70307e-19 9.0874e-13 1.96672e-16)
(2.51698e-18 4.89997e-15 1.41112e-15)
(2.55864e-18 4.18078e-13 2.10898e-14)
(7.69501e-16 5.73139e-12 1.41986e-18)
(1.15436e-15 2.57083e-09 2.64749e-14)
(2.48778e-14 1.32787e-10 3.02356e-11)
(1.18894e-14 5.66863e-12 4.23806e-09)
(9.0855e-17 1.83537e-13 7.46758e-13)
(7.21533e-16 1.90008e-11 1.44267e-11)
(4.45822e-18 5.89047e-11 4.69009e-11)
(6.466e-16 3.21016e-12 2.53718e-12)
(4.25578e-17 2.35166e-14 1.61058e-14)
(3.41465e-19 9.1864e-17 5.59423e-17)
(1.35129e-20 3.04169e-19 2.13956e-18)
(6.9072e-18 1.86104e-15 6.80925e-16)
(9.04403e-16 3.37441e-12 4.68861e-14)
(1.7577e-14 1.183e-09 2.70566e-14)
(3.84807e-11 5.5401e-07 8.14187e-18)
(2.00361e-09 1.31274e-06 2.82232e-14)
(2.95638e-09 1.44403e-06 8.43342e-12)
(1.49623e-09 3.98131e-06 1.57477e-11)
(2.23179e-09 1.96728e-06 1.2337e-12)
(4.02966e-11 1.03181e-07 5.00823e-14)
(3.50588e-11 3.75891e-07 4.02294e-13)
(5.78054e-10 4.66687e-07 4.11693e-13)
(5.87556e-10 1.75491e-07 1.75162e-12)
(2.07826e-08 0.00155969 1.37475e-11)
(1.69463e-09 0.00149183 6.24724e-09)
(1.27229e-08 0.00221453 1.8443e-09)
(1.02236e-07 0.00166114 6.72113e-10)
(3.20299e-08 0.000983224 1.6578e-07)
(6.13455e-08 0.00167796 6.14382e-08)
(2.86598e-09 2.3493e-06 2.21324e-10)
(2.88014e-12 2.86363e-09 3.5147e-13)
(7.38791e-17 3.65816e-12 4.03238e-16)
(3.67506e-18 3.81389e-15 4.00807e-19)
(1.73166e-20 2.69385e-17 1.10579e-21)
(9.33809e-23 3.73721e-18 7.27014e-23)
(8.07794e-26 1.48268e-18 5.88882e-23)
(1.81754e-23 1.33747e-18 3.16687e-21)
(1.29247e-24 8.8202e-18 1.01229e-20)
(2.61725e-23 8.79342e-21 4.78319e-20)
(1.29247e-24 3.35995e-18 1.91701e-19)
(5.04144e-22 2.2548e-17 1.45565e-20)
(4.19924e-20 6.74488e-15 3.52995e-18)
(7.87347e-19 9.6107e-15 8.83685e-16)
(1.12086e-18 1.56056e-13 5.11668e-14)
(5.97444e-22 5.48666e-18 4.55657e-18)
(2.86941e-20 5.6493e-16 4.8686e-16)
(6.39853e-22 5.07994e-15 3.45039e-15)
(2.47031e-20 3.22979e-16 1.77846e-16)
(2.11997e-21 2.50965e-18 9.16859e-19)
(1.81754e-23 8.45819e-21 1.57199e-21)
(3.23117e-25 2.94008e-22 2.62452e-22)
(3.23117e-23 1.6999e-19 2.32943e-20)
(3.49484e-21 5.22e-17 7.75038e-19)
(1.43967e-19 6.87162e-15 5.19106e-19)
(4.58336e-17 1.37554e-13 5.50277e-21)
(2.31881e-14 2.86498e-10 2.25151e-19)
(1.4159e-13 1.49663e-08 1.9757e-16)
(7.07661e-15 1.74434e-08 9.55816e-16)
(1.29061e-13 2.65174e-10 7.88003e-17)
(4.80928e-15 6.88278e-12 3.06721e-18)
(3.23551e-16 1.21841e-12 1.92822e-17)
(3.962e-15 1.85192e-10 8.49102e-18)
(3.61746e-14 4.49584e-09 3.82506e-17)
(4.33004e-13 6.42024e-09 2.11476e-15)
(8.08904e-15 1.07873e-07 2.37963e-13)
(1.10725e-12 3.7246e-08 6.46702e-17)
(8.78123e-13 4.06388e-07 1.53479e-14)
(6.53538e-14 4.67272e-07 7.82499e-12)
(1.0403e-12 2.15428e-08 3.1858e-12)
(4.01324e-14 2.15846e-11 1.74495e-14)
(9.18874e-17 5.33669e-16 3.7746e-17)
(1.51615e-19 2.7947e-17 5.98834e-20)
(3.10516e-22 1.28748e-19 8.79687e-23)
(3.23117e-25 5.20858e-22 7.27014e-25)
(3.23117e-25 2.20666e-24 5.59848e-42)
(8.07794e-26 1.46204e-23 1.81754e-25)
(8.07794e-26 5.46708e-24 1.81754e-25)
(8.07794e-26 5.23372e-23 1.63578e-24)
(8.07794e-26 4.98565e-25 1.63578e-24)
(8.07794e-26 4.71685e-23 1.63578e-24)
(1.57814e-54 6.17415e-24 1.81754e-25)
(3.23117e-25 4.49273e-21 1.0469e-22)
(1.16322e-23 3.12829e-19 1.70187e-20)
(7.7629e-23 5.59492e-18 6.31502e-19)
(3.23117e-25 3.6599e-22 7.27014e-25)
(8.07794e-26 2.74404e-21 5.75868e-21)
(1.72445e-56 1.60796e-19 1.1866e-19)
(8.07794e-26 1.313e-20 4.82901e-21)
(7.27014e-25 1.12177e-22 1.81754e-23)
(6.8978e-56 4.09195e-25 1.39961e-42)
(3.23117e-25 0 0)
(8.07794e-26 1.63678e-24 7.27014e-25)
(8.07794e-26 2.01306e-22 8.90592e-24)
(7.27014e-25 2.17778e-20 2.90806e-24)
(7.7629e-23 9.18336e-19 7.27014e-25)
(8.6032e-20 2.8782e-16 6.54313e-24)
(6.26266e-18 1.43789e-13 3.36171e-21)
(1.91328e-19 8.41318e-13 5.57831e-20)
(5.64699e-18 2.89297e-14 5.75868e-21)
(5.32295e-19 6.41212e-16 1.9793e-22)
(1.70187e-20 4.04959e-18 4.72741e-22)
(6.3331e-21 3.73747e-16 3.07163e-23)
(6.14453e-19 2.38336e-14 5.25268e-23)
(4.34492e-18 2.05532e-13 6.65263e-20)
(6.07345e-19 2.19296e-12 2.97386e-18)
(1.28022e-18 5.27805e-14 7.12547e-21)
(1.84624e-17 1.28495e-12 1.47629e-20)
(1.79963e-20 6.5368e-12 2.85465e-16)
(1.76987e-17 2.48412e-13 1.53076e-16)
(1.00715e-18 5.68412e-16 1.40365e-18)
(5.12981e-21 9.39426e-19 4.76994e-21)
(1.58328e-23 2.03014e-21 8.90592e-24)
(7.27014e-25 4.77283e-24 7.27014e-25)
(8.07794e-26 4.48708e-24 1.81754e-25)
(5.75106e-54 4.98565e-25 1.81754e-25)
(6.37237e-54 4.98565e-25 7.27014e-25)
(8.07794e-26 1.63678e-24 0)
(3.69264e-52 7.03765e-25 1.25965e-41)
(1.35572e-52 4.41e-27 1.81754e-25)
(3.23117e-25 2.56915e-25 1.81754e-25)
(3.23117e-25 4.21015e-24 2.90806e-24)
(1.6114e-54 0 1.81754e-25)
(1.6114e-54 8.19595e-25 1.81754e-25)
(8.07794e-26 8.30427e-23 1.81754e-23)
(8.07794e-26 2.69734e-25 1.3996e-42)
(8.07794e-26 3.45547e-24 7.27014e-25)
(8.07794e-26 1.48646e-24 1.25965e-41)
(2.65768e-55 1.79434e-24 7.27014e-25)
(8.07794e-26 3.35845e-25 0)
(0 3.23542e-24 1.81754e-25)
(8.07794e-26 3.35845e-25 1.81754e-25)
(1.00646e-55 1.44779e-26 5.59844e-42)
(8.07794e-26 3.61949e-27 1.81754e-25)
(3.23117e-25 0 0)
(8.07794e-26 9.10791e-24 5.59846e-42)
(3.23117e-25 3.72908e-22 1.81754e-25)
(2.18427e-22 4.31669e-19 1.39961e-42)
(5.04871e-23 3.14588e-17 2.90806e-24)
(2.01948e-22 2.69145e-18 7.40396e-40)
(5.04871e-23 7.0007e-20 1.81754e-25)
(7.27014e-25 0 1.81754e-25)
(0 7.98989e-22 0)
(6.54313e-24 3.22888e-20 1.39961e-42)
(2.06795e-23 3.22128e-18 1.81754e-25)
(5.16988e-24 2.03698e-17 8.90592e-24)
(4.27323e-23 1.62409e-21 1.81754e-25)
(4.42348e-22 3.86023e-18 2.19922e-23)
(1.81754e-23 9.26596e-17 1.02089e-20)
(4.30473e-22 5.13374e-18 7.27014e-21)
(3.90972e-23 2.65491e-20 9.61476e-23)
(3.23117e-25 8.02022e-23 1.81754e-25)
(8.07794e-26 1.63678e-24 1.81754e-25)
(8.07794e-26 2.69734e-25 7.27014e-25)
(2.61307e-53 3.35845e-25 1.63578e-24)
(5.63994e-53 3.35845e-25 7.27014e-25)
(3.23117e-25 0 1.39961e-42)
(8.07794e-26 4.89784e-25 7.27014e-25)
(8.07794e-26 1.63678e-24 0)
(8.07794e-26 4.09195e-25 1.81754e-25)
(3.23117e-25 1.79434e-24 7.27014e-25)
(8.07794e-26 3.61949e-27 5.59846e-42)
(1.29247e-24 0 1.81754e-25)
(8.07794e-26 3.25754e-26 1.63578e-24)
(7.27014e-25 3.61949e-27 5.59843e-42)
(8.07794e-26 1.18827e-26 1.81754e-25)
(3.23117e-25 2.97068e-27 1.81754e-25)
(8.07794e-26 2.97068e-27 1.39962e-42)
(2.06512e-56 1.22001e-24 1.81754e-25)
(3.23117e-25 2.97068e-27 7.27014e-25)
(3.23117e-25 1.18827e-26 1.81754e-25)
(8.07794e-26 3.35845e-25 1.39961e-42)
(3.23117e-25 4.01988e-25 1.81754e-25)
(8.07794e-26 2.97068e-27 1.81754e-25)
(3.23117e-25 0 1.81754e-25)
(8.07794e-26 4.74072e-25 1.81754e-25)
(1.59309e-54 4.01988e-25 1.81754e-25)
(3.23117e-25 2.97068e-27 1.63578e-24)
(8.07794e-26 8.76758e-22 1.39961e-42)
(3.23117e-25 2.25392e-22 1.39961e-42)
(0 1.60795e-24 1.81754e-25)
(8.07794e-26 0 1.81754e-25)
(8.07794e-26 4.01988e-25 5.59846e-42)
(7.27014e-25 2.97068e-27 1.39961e-42)
(8.07794e-26 3.23329e-23 1.39961e-42)
(3.62557e-54 7.65157e-23 1.81754e-25)
(8.07794e-26 2.75643e-25 1.39961e-42)
(0 2.04952e-23 1.81754e-25)
(0 1.88439e-21 1.81754e-25)
(3.23117e-25 1.74768e-22 7.27014e-25)
(8.07794e-26 4.74072e-25 1.81754e-25)
(8.07794e-26 2.75643e-25 7.27014e-25)
(8.07794e-26 2.75643e-25 1.81754e-25)
(1.58111e-54 4.01988e-25 1.81754e-25)
(8.07794e-26 2.97068e-27 1.81754e-25)
(8.07794e-26 2.97068e-27 1.81754e-25)
(0 2.75643e-25 1.81754e-25)
(8.07794e-26 3.35845e-25 0)
(0 0 1.81754e-25)
(0 1.10257e-24 0)
(8.07794e-26 2.97068e-27 1.63578e-24)
(3.99807e-53 3.35845e-25 1.39961e-42)
(1.2907e-57 0 1.81754e-25)
(6.32442e-54 4.74072e-25 5.59846e-42)
(3.23117e-25 3.35845e-25 7.27014e-25)
(4.07209e-54 1.10257e-24 1.81754e-25)
(8.07794e-26 2.75643e-25 1.81754e-25)
(8.07794e-26 1.00131e-24 7.27014e-25)
(9.53402e-57 2.75643e-25 1.81754e-25)
(8.07794e-26 1.00131e-24 1.81754e-25)
(8.07794e-26 1.10257e-24 0)
(4.23734e-55 2.0361e-24 1.81754e-25)
(8.07794e-26 1.00131e-24 0)
(0 2.75643e-25 1.81754e-25)
(8.07794e-26 0 1.81754e-25)
(0 3.2993e-25 1.81754e-25)
(8.07794e-26 2.75643e-25 0)
(3.23117e-25 1.00131e-24 0)
(8.07794e-26 1.81699e-25 5.59844e-42)
(8.07794e-26 2.75643e-25 7.27014e-25)
(8.07794e-26 3.2993e-25 1.81754e-25)
(3.23117e-25 0 1.81754e-25)
(3.8242e-55 1.00131e-24 7.27014e-25)
(1.61125e-54 2.75643e-25 1.81754e-25)
(8.07794e-26 3.2993e-25 1.81754e-25)
(8.07794e-26 1.81699e-25 1.39961e-42)
(0 2.75643e-25 1.81754e-25)
(1.61125e-54 1.10257e-24 1.39961e-42)
(0 1.00131e-24 1.81754e-25)
(8.07794e-26 1.10257e-24 7.27014e-25)
(1.01958e-52 3.2993e-25 1.39961e-42)
(3.23117e-25 1.81699e-25 1.81754e-25)
(8.07794e-26 2.43817e-27 5.59842e-42)
(6.445e-54 1.00131e-24 1.81754e-25)
(8.07794e-26 1.81699e-25 1.39962e-42)
(8.07794e-26 2.43817e-27 0)
(8.07794e-26 2.75643e-25 1.81754e-25)
(0 0 1.81754e-25)
(3.23117e-25 2.26233e-25 1.81754e-25)
(8.07794e-26 1.42041e-25 5.59847e-42)
(8.07794e-26 2.43817e-27 7.27014e-25)
(8.07794e-26 9.04932e-25 1.39961e-42)
(3.23117e-25 2.26233e-25 0)
(0 3.2993e-25 1.39961e-42)
(3.23117e-25 0 0)
(4.20811e-55 1.8568e-25 1.81754e-25)
(3.23117e-25 1.8568e-25 7.27014e-25)
(8.07794e-26 2.00112e-27 1.81754e-25)
(3.58446e-56 1.8568e-25 7.27014e-25)
(8.07794e-26 1.49129e-25 1.81754e-25)
(7.27014e-25 1.8568e-25 1.81754e-25)
(8.07794e-26 9.92042e-25 1.81754e-25)
(3.23117e-25 2.00112e-27 1.81754e-25)
(8.07794e-26 1.8568e-25 1.81754e-25)
(0 0 0)
(0 2.00112e-27 1.81754e-25)
(8.07794e-26 0 1.81754e-25)
(1.5337e-54 2.00112e-27 1.39961e-42)
(3.56125e-54 2.70788e-25 1.81754e-25)
(6.43041e-54 1.8568e-25 7.27014e-25)
(8.07794e-26 8.21824e-25 7.27014e-25)
(0 1.8568e-25 1.81754e-25)
(0 2.26233e-25 1.81754e-25)
(0 0 1.39961e-42)
(8.07794e-26 2.26233e-25 1.81754e-25)
(1.95625e-53 2.70788e-25 0)
(3.23117e-25 1.8568e-25 0)
(8.07794e-26 0 1.39961e-42)
(0 1.49129e-25 1.39961e-42)
(8.07794e-26 7.42719e-25 7.27014e-25)
(3.23117e-25 2.00112e-27 1.39961e-42)
(1.38033e-53 8.00447e-27 7.27014e-25)
(6.1348e-54 2.26233e-25 1.39961e-42)
(8.07794e-26 1.49129e-25 1.81754e-25)
(8.07794e-26 2.70788e-25 1.39961e-42)
(8.07794e-26 8.21824e-25 1.81754e-25)
(0 0 0)
(8.07794e-26 1.8568e-25 0)
(8.07794e-26 2.00112e-27 1.81754e-25)
(8.07794e-26 2.0361e-24 1.63578e-24)
(1.5337e-54 2.00112e-27 0)
(8.07794e-26 2.70788e-25 1.81754e-25)
(8.07794e-26 2.00112e-27 1.39961e-42)
(8.07794e-26 8.21824e-25 1.81754e-25)
(8.07794e-26 0 1.81754e-25)
(8.07794e-26 1.8568e-25 1.81754e-25)
(1.02757e-55 1.8568e-25 7.27014e-25)
(8.07794e-26 1.64241e-27 1.39961e-42)
(8.07794e-26 1.8568e-25 1.63578e-24)
(8.07794e-26 6.56963e-27 7.27014e-25)
(0 1.22397e-25 7.27014e-25)
(8.07794e-26 1.46813e-24 7.27014e-25)
(4.1103e-55 6.74509e-25 0)
(9.24817e-55 1.64241e-27 1.81754e-25)
(9.24817e-55 1.52396e-25 1.63578e-24)
(0 1.64241e-27 7.27014e-25)
(8.07794e-26 0 0)
(8.07794e-26 1.8568e-25 1.63578e-24)
(0 1.22397e-25 1.81754e-25)
(3.23117e-25 1.22397e-25 1.81754e-25)
(8.07794e-26 1.64241e-27 1.81754e-25)
(8.07794e-26 1.8568e-25 7.27014e-25)
(8.07794e-26 0 1.39961e-42)
(0 1.52396e-25 7.27014e-25)
(0 1.52396e-25 1.81754e-25)
(8.07794e-26 1.64241e-27 7.27014e-25)
(8.07794e-26 6.74509e-25 1.81754e-25)
(5.73513e-53 0 1.63578e-24)
(3.23117e-25 2.22248e-25 1.81754e-25)
(0 9.56824e-26 5.59846e-42)
(3.23117e-25 1.22397e-25 1.81754e-25)
(8.07794e-26 2.22248e-25 1.14175e-56)
(6.30531e-54 1.52396e-25 7.27014e-25)
(1.64412e-54 7.42719e-25 1.39961e-42)
(0 1.64241e-27 1.81754e-25)
(1.64412e-54 1.64241e-27 1.39962e-42)
(0 1.52396e-25 0)
(6.30531e-54 1.8568e-25 1.81754e-25)
(3.23117e-25 1.64241e-27 0)
(8.07794e-26 6.09583e-25 1.63578e-24)
(8.07794e-26 1.64241e-27 1.81754e-25)
(8.07794e-26 1.8568e-25 7.27014e-25)
(8.07794e-26 1.64241e-27 1.81754e-25)
(6.30531e-54 1.22397e-25 1.14175e-56)
(8.07794e-26 1.52396e-25 1.81754e-25)
(3.23117e-25 1.25078e-25 1.81754e-25)
(8.07794e-26 5.00313e-25 1.81754e-25)
(8.07794e-26 1.00457e-25 7.27014e-25)
(1.14793e-55 0 0)
(8.07794e-26 1.82409e-25 5.59847e-42)
(0 1.82409e-25 1.81754e-25)
(3.23117e-25 5.392e-27 7.27014e-25)
(8.07794e-26 1.00457e-25 1.81754e-25)
(3.23117e-25 1.52396e-25 7.27014e-25)
(1.03314e-54 1.348e-27 1.81754e-25)
(8.07794e-26 1.348e-27 1.81754e-25)
(0 5.00313e-25 1.81754e-25)
(8.07794e-26 0 1.39961e-42)
(3.23117e-25 6.09583e-25 7.27014e-25)
(8.07794e-26 5.392e-27 1.81754e-25)
(7.27014e-25 1.00457e-25 2.90806e-24)
(3.95919e-55 1.25078e-25 1.81754e-25)
(3.56327e-54 1.25078e-25 1.81754e-25)
(8.07794e-26 5.536e-25 1.39962e-42)
(0 1.348e-27 5.59845e-42)
(8.07794e-26 1.348e-27 7.27014e-25)
(3.23117e-25 1.00457e-25 1.81754e-25)
(3.23117e-25 5.00313e-25 1.63578e-24)
(8.07794e-26 5.536e-25 1.81754e-25)
(8.07794e-26 2.15119e-25 1.81754e-25)
(3.23117e-25 6.09583e-25 7.27014e-25)
(3.23117e-25 1.348e-27 1.81754e-25)
(8.07794e-26 1.00457e-25 1.39962e-42)
(2.54895e-53 0 7.27014e-25)
(8.07794e-26 1.348e-27 1.81754e-25)
(6.0934e-54 1.52396e-25 0)
(8.07794e-26 1.00457e-25 1.81754e-25)
(0 5.00313e-25 1.81754e-25)
(2.54895e-53 1.52396e-25 1.81754e-25)
(8.07794e-26 1.82409e-25 7.27014e-25)
(8.07794e-26 5.536e-25 7.27014e-25)
(8.07794e-26 1.25078e-25 7.27014e-25)
(8.07794e-26 1.348e-27 7.27014e-25)
(2.54895e-53 6.09583e-25 1.63578e-24)
(8.07794e-26 4.49722e-25 1.81754e-25)
(7.27014e-25 8.24493e-26 7.27014e-25)
(3.23117e-25 4.42546e-27 1.81754e-25)
(8.07794e-26 6.44539e-26 7.27014e-25)
(8.07794e-26 1.02657e-25 1.81754e-25)
(0 1.25078e-25 1.81754e-25)
(8.07794e-26 1.25078e-25 1.81754e-25)
(8.07794e-26 6.44539e-26 1.81754e-25)
(8.07794e-26 5.00313e-25 1.81754e-25)
(8.07794e-26 1.02657e-25 1.63578e-24)
(8.07794e-26 1.25078e-25 1.81754e-25)
(3.23117e-25 1.10636e-27 7.27014e-25)
(8.07794e-26 6.44539e-26 1.63578e-24)
(8.07794e-26 1.02657e-25 0)
(0 1.02657e-25 1.39962e-42)
(8.07794e-26 5.00313e-25 1.81754e-25)
(1.50745e-54 4.42546e-27 1.63578e-24)
(7.27014e-25 1.25078e-25 1.63578e-24)
(3.23117e-25 8.24493e-26 5.59847e-42)
(8.07794e-26 1.10636e-27 5.59844e-42)
(3.23117e-25 1.25078e-25 1.39962e-42)
(0 8.24493e-26 1.81754e-25)
(8.07794e-26 4.42546e-27 1.81754e-25)