/*--------------------------------*- C++ -*----------------------------------*\
| =========                 |                                                 |
| \\      /  F ield         | OpenFOAM: The Open Source CFD Toolbox           |
|  \\    /   O peration     | Version:  5.0                                   |
|   \\  /    A nd           | Web:      www.OpenFOAM.org                      |
|    \\/     M anipulation  |                                                 |
\*---------------------------------------------------------------------------*/
FoamFile
{
    version     2.0;
    format      ascii;
    class       volVectorField;
    location    "50.4676134421789371";
    object      TTDissMean;
}
// * * * * * * * * * * * * * * * * * * * * * * * * * * * * * * * * * * * * * //

dimensions      [0 -2 0 2 0 0 0];

internalField   nonuniform List<vector> 
60000
(
(2.70077 1.63727e+06 189.684)
(2.38045 1.63488e+06 164.691)
(6.81545 1.58816e+06 149.356)
(22.799 1.46039e+06 147.574)
(15.2236 1.29239e+06 73.5721)
(0.900416 1.22057e+06 5.26252)
(3.91397 1.26487e+06 10.2919)
(1.70878 1.32814e+06 19.7469)
(2.01039 1.38292e+06 9.63337)
(4.08197 1.46767e+06 8.97841)
(4.90266 1.57828e+06 25.7267)
(1.84351 1.65591e+06 51.8298)
(0.25181 1.65705e+06 65.9348)
(1.34945 1.58987e+06 58.4043)
(0.422303 1.52265e+06 32.8706)
(0.17808 1.52758e+06 24.8302)
(1.17423 1.60675e+06 65.6677)
(1.85743 1.70986e+06 130.108)
(3.17854 1.7642e+06 184.415)
(4.53277 1.76981e+06 187.961)
(4.37522 1.74663e+06 103.253)
(1.38831 1.72849e+06 20.3426)
(1.54482 1.76552e+06 0.46839)
(6.21432 1.85133e+06 1.39154)
(10.9035 1.96832e+06 2.15649)
(13.0525 2.09073e+06 4.5443)
(18.4185 2.23023e+06 8.24845)
(20.5993 2.40255e+06 13.5017)
(7.26658 2.52304e+06 77.6701)
(24.1034 2.43309e+06 176.446)
(43.7677 2.16511e+06 115.708)
(17.4244 1.92927e+06 50.0621)
(0.486469 1.82907e+06 56.9254)
(23.6425 1.87706e+06 71.7244)
(24.5189 2.02388e+06 184.503)
(8.18731 2.04544e+06 355.962)
(36.8459 1.80412e+06 149.699)
(10.0728 1.57631e+06 55.448)
(0.755147 1.54114e+06 101.821)
(3.52395 1.5966e+06 159.083)
(0.581122 69217.7 1485.1)
(6.1742 70527.8 1141.31)
(24.7986 73770.4 748.669)
(53.8769 75871.8 462.614)
(38.4094 76118 191.746)
(1.74018 79884.7 20.4548)
(7.81824 85175.3 4.25925)
(16.3944 84459.6 0.779405)
(25.5814 79545.7 44.8777)
(38.4641 72553.7 200.925)
(27.1252 65102.9 369.7)
(3.06316 61367 430.34)
(5.85531 63723.3 337.384)
(17.2538 70860.9 163.95)
(3.46866 78946.5 26.599)
(8.90443 82121.5 47.9477)
(39.9447 75566.5 207.963)
(34.0279 62217.6 354.485)
(10.0286 49839.2 455.56)
(1.51374 44469.3 470.933)
(0.538996 42279.6 266.919)
(3.02363 40652.1 41.2148)
(14.9343 39182.1 2.75924)
(28.4128 38950.8 16.3514)
(32.2248 41571.7 6.8798)
(30.9095 44707.7 3.18375)
(33.6719 45456.9 6.41706)
(26.101 43394.1 9.91496)
(5.59813 39928.6 48.2268)
(51.5545 35783.4 81.3963)
(100.635 33017.3 24.858)
(56.2047 33303.1 174.054)
(6.29896 36210.8 432.526)
(4.12355 41884.2 450.102)
(4.84742 49786.2 411.29)
(39.7183 56802.6 270.885)
(121.748 59262.4 22.8833)
(47.1126 63385.2 483.084)
(0.254848 68885 1183.39)
(3.3474 69623.5 1511.72)
(1.31448 302678 594.413)
(0.57731 295675 485.546)
(10.4728 282691 316.531)
(27.2068 261078 206.295)
(20.8403 235359 126.378)
(2.55726 223442 44.9445)
(0.99022 229003 5.32049)
(4.24356 240417 1.35371)
(10.0878 255173 15.1389)
(22.6022 276041 74.1168)
(21.7675 298318 181.944)
(3.08662 312014 289.672)
(5.09296 313874 313.385)
(18.4941 305692 222.31)
(9.43185 297803 88.792)
(0.683062 304604 10.3047)
(23.0806 322206 1.63295)
(40.7778 333026 9.62323)
(19.1702 324158 26.8449)
(1.52432 319958 69.8192)
(0.10906 334228 58.378)
(0.366561 354981 2.93457)
(3.13131 382598 14.4943)
(4.20222 414936 11.016)
(3.83466 446994 1.59994)
(9.10607 473984 28.3703)
(28.3196 494945 52.4199)
(37.3893 501519 28.7964)
(6.36042 486169 0.261526)
(12.6567 451245 14.8962)
(46.0009 410393 2.1469)
(32.146 382787 30.6249)
(5.86609 373861 133.419)
(0.458329 379755 183.207)
(0.114284 387738 174.364)
(22.2794 375360 84.7971)
(60.4779 333722 0.568473)
(28.0063 297937 117.777)
(0.51083 292821 340.028)
(2.98754 300546 535.49)
(0.311066 43373.3 57.4253)
(0.0529947 44721.8 66.2574)
(1.08952 42714.5 47.9739)
(3.43734 36159.8 38.874)
(2.89948 28627.8 38.2636)
(0.235522 24734.2 23.3477)
(0.661763 24514.5 4.02218)
(0.940794 25506.8 0.718393)
(0.757464 27628.9 4.58467)
(1.62151 32595.9 1.17996)
(1.56324 39880.4 4.96947)
(0.129945 46403.7 43.3884)
(2.7983 48940.4 85.5017)
(5.67994 46046.6 78.9185)
(2.75853 40886.6 41.3109)
(0.289086 38455.1 13.124)
(11.3766 40807.2 5.7813)
(31.1758 44944.4 11.5961)
(19.8172 45099.3 9.29029)
(0.247013 42945.4 2.68339)
(11.1405 48251.3 32.6772)
(11.4152 60964 18.5535)
(4.09912 75087.9 0.70728)
(0.412452 84691.1 0.131207)
(0.180375 86575 2.33743)
(2.00331 86149.5 16.1456)
(12.0597 92304.4 42.9448)
(31.5667 103056 45.4534)
(18.9469 104899 6.11627)
(0.290424 95286.7 10.3291)
(15.2134 83628.5 23.6055)
(17.4963 76222.9 4.61677)
(5.21634 73781.3 1.66256)
(0.314452 75244.6 8.9009)
(2.78348 76155 21.2006)
(0.441511 67918.2 28.8979)
(10.2642 53639.6 9.36377)
(6.77772 43344.8 0.317955)
(0.204634 39783.1 8.45359)
(0.529842 40967.7 27.0832)
(0.014593 1231.4 6.02037)
(0.328 1354.35 15.7195)
(0.30668 1346.2 12.753)
(0.220657 1007.18 8.64999)
(0.160574 594.795 10.5233)
(0.00608894 418.434 7.73671)
(0.454699 467.364 0.317682)
(0.745327 575.656 5.84753)
(0.339635 613.002 15.2813)
(0.317409 749.825 9.55894)
(0.0915446 987.603 0.237188)
(1.07835 1152.11 13.5265)
(4.72219 1217.39 42.6584)
(3.65527 1120.04 32.5949)
(0.522061 847.381 8.36034)
(0.683172 655.485 0.218234)
(7.8037 864.347 0.0508495)
(25.7616 1572.06 4.65021)
(25.2665 1940.82 18.4489)
(0.394047 1310.54 0.635193)
(27.3742 1058.48 42.7896)
(40.8984 1996.78 71.4587)
(14.7048 3425.59 28.2712)
(0.258126 3653.52 3.81049)
(3.2494 2679.01 0.311124)
(3.45991 1813.54 0.607341)
(3.04822 1945.65 5.63772)
(11.8197 3919.7 17.3855)
(16.0049 6418.87 5.51609)
(0.915174 6029.82 7.50152)
(7.11926 4264.33 27.9418)
(11.8413 3204.94 13.6597)
(4.76882 2813.85 0.847465)
(0.040311 2948.96 0.102317)
(3.33657 3583.72 2.45059)
(0.854451 3426.46 11.5964)
(1.28183 2239.13 10.5062)
(1.45206 1395.48 2.3721)
(0.0412542 1155.58 0.13531)
(0.398233 1165.88 0.314715)
(0.0429678 11.9459 0.514684)
(0.0988328 4.01883 4.66354)
(0.0991138 1.51894 5.85769)
(0.0202495 2.53077 2.92635)
(0.0211672 8.28002 2.84709)
(0.00764795 12.0588 2.22133)
(0.0661241 3.61853 0.0221466)
(0.255495 0.998121 4.96036)
(0.152928 5.93771 11.8562)
(0.122353 10.735 7.30826)
(0.13094 22.4795 0.511118)
(0.16904 12.7788 3.32574)
(2.2953 4.94902 18.8757)
(2.42576 43.6567 20.357)
(0.33514 76.1949 3.82411)
(0.111519 73.4341 0.568261)
(1.63906 10.0895 3.25659)
(11.8513 83.9635 0.0467501)
(24.3865 373.898 11.5244)
(3.15382 250.171 5.94236)
(19.6875 22.3787 24.0215)
(48.3913 2.43778 90.2823)
(17.2995 10.9257 51.9197)
(0.306053 6.98822 5.78558)
(8.90135 51.4704 0.119165)
(6.04564 49.5344 0.426456)
(0.314457 37.462 0.0248545)
(0.183228 1.32045 1.75254)
(4.66572 337.702 4.52897)
(3.40954 694.459 0.307934)
(0.807093 299.426 10.8423)
(5.95647 33.6031 7.37876)
(3.83421 2.75799 0.198105)
(0.244299 2.27891 0.436788)
(1.05283 20.7267 1.27106)
(1.16828 96.2631 6.53652)
(0.0631444 46.8895 8.2352)
(0.570815 3.21157 2.04686)
(0.00487818 1.18372 0.0939425)
(0.330149 10.1231 0.00221384)
(0.0342161 0.592283 0.0371356)
(0.00443791 2.05343 0.729365)
(0.0121658 6.94772 2.05414)
(0.000434387 10.2146 1.12018)
(0.00189121 13.3716 0.725947)
(0.0156608 18.0322 0.653096)
(0.000128266 14.9601 0.00572066)
(0.0372449 5.37466 1.57752)
(0.0487314 0.979146 4.07672)
(0.0413958 0.258864 2.95463)
(0.0600946 0.169099 0.278604)
(0.00238607 0.681212 0.545035)
(0.360378 4.34263 3.79259)
(0.638216 44.0493 6.52917)
(0.140188 83.4577 2.59798)
(0.00296978 87.3433 0.0302699)
(0.00136836 54.0644 1.70386)
(2.33481 0.839186 0.671587)
(15.4871 145.051 4.12491)
(6.90778 219.104 8.98747)
(8.4809 44.5454 5.82695)
(36.7175 3.93397 61.3325)
(11.5307 65.2369 38.1971)
(1.38335 186.395 1.53785)
(6.71251 156.104 1.2098)
(2.72696 33.7311 0.524651)
(0.309914 5.41895 0.0467495)
(0.0915192 17.6349 0.0115819)
(0.005334 0.567426 0.392857)
(0.904358 90.2263 0.315087)
(0.397099 110.116 1.16461)
(0.38998 6.9176 2.60506)
(1.30135 24.9192 0.106693)
(0.473571 59.9738 0.499858)
(0.0197913 30.549 0.566775)
(0.287994 0.373061 2.069)
(0.0248029 0.19433 4.03221)
(0.0835301 7.55191 1.14168)
(0.0130458 15.6012 0.00201806)
(0.0525742 4.93416 0.0488613)
(0.00279219 0.751154 0.019209)
(5.64433e-05 0.593996 0.0592771)
(0.000103944 1.47347 0.340452)
(0.00145618 1.90965 0.242162)
(0.00140162 1.96133 0.124747)
(0.00193148 3.0984 0.202547)
(0.00469585 4.42224 0.0200356)
(0.000152698 2.80275 0.233379)
(0.00612618 0.88249 0.78023)
(0.0119485 0.301556 0.745204)
(0.0174676 0.0177371 0.134455)
(0.000341716 0.134608 0.0822527)
(0.0640205 0.087019 0.588653)
(0.113099 4.38369 1.15314)
(0.00923586 13.0266 0.776248)
(0.00169472 16.8196 0.0456927)
(0.140372 21.4758 0.299219)
(0.0251121 8.01513 0.408409)
(5.84447 31.2053 0.989399)
(6.84769 157.016 4.74733)
(2.50229 88.7722 0.859106)
(19.1236 0.872974 21.2759)
(4.36819 80.7223 10.9631)
(1.37544 137.206 0.0470584)
(2.52284 47.7951 0.718917)
(0.471592 6.00498 0.210873)
(0.0685204 0.0200984 0.0011223)
(0.0131668 0.0191387 0.000365906)
(0.0135236 3.23729 0.00347195)
(0.00146969 0.086376 0.0590574)
(0.0674613 12.7413 0.00213571)
(0.0367823 10.9521 0.377035)
(0.0315837 0.154023 0.251269)
(0.124146 9.80874 0.0218763)
(0.0353028 12.9781 0.104178)
(0.00417138 3.59793 0.271178)
(0.0107453 0.213181 0.929391)
(0.000362269 1.34322 0.521453)
(0.0026029 4.44851 0.00463405)
(0.000877009 2.95333 0.0459165)
(4.8798e-05 0.175492 0.00943199)
(2.36813e-07 0.114395 0.00905371)
(1.40779e-05 0.165719 0.0390226)
(0.000321747 0.164061 0.0313843)
(0.000600697 0.0558477 0.00769054)
(6.76693e-05 0.0644062 0.0321143)
(0.000360997 0.236296 0.0182513)
(0.000551781 0.34202 0.00978718)
(7.36909e-05 0.149916 0.0758525)
(0.00243224 0.0294529 0.12096)
(0.00524057 0.00324807 0.0465519)
(0.000124503 0.0680978 0.00631662)
(0.0198109 0.00711957 0.1078)
(0.0289896 0.386779 0.175307)
(0.000446749 1.34812 0.133731)
(0.0207408 1.16815 0.0302956)
(0.0444309 2.19406 0.0267581)
(0.150913 7.73036 0.160667)
(1.01959 0.382084 0.127838)
(3.34398 60.8199 1.48591)
(0.371278 72.5976 0.0681452)
(6.41388 1.06012 4.42257)
(1.21383 46.3125 1.85617)
(0.529356 45.4582 0.0308124)
(0.681497 8.86164 0.160174)
(0.120459 0.855735 0.0312631)
(0.0057462 0.150662 0.00199646)
(0.000978396 0.0326699 0.000148456)
(0.000459635 0.0266301 0.000431544)
(0.000866418 0.170852 0.000104876)
(0.000209492 0.00492032 0.00442331)
(0.00264974 0.792551 0.00234967)
(0.00304669 0.868215 0.0389545)
(0.000870832 0.0128029 0.0111324)
(0.00746378 0.765453 0.00117224)
(0.00228808 0.809095 0.0104144)
(0.000108586 0.212081 0.0833838)
(0.000232878 0.121943 0.10285)
(3.14654e-05 0.316689 0.00817626)
(6.97271e-07 0.370603 0.00651341)
(1.0591e-05 0.0146021 0.000934209)
(9.54595e-06 0.0128549 0.0023047)
(1.50177e-05 0.0137018 0.00528883)
(1.56152e-05 0.0105853 0.00318651)
(3.0164e-05 0.00177116 0.000250078)
(5.00305e-05 2.16233e-05 0.000989457)
(2.03294e-07 0.000184608 0.00178856)
(4.6531e-05 0.00711093 1.56544e-05)
(5.36253e-05 0.0117086 0.00212271)
(0.000297265 0.00137146 0.008785)
(0.00178659 0.0102476 0.00769168)
(3.50568e-05 0.0489892 0.000612014)
(0.00467769 0.0111104 0.0177526)
(0.00637962 0.0864528 0.0204907)
(9.68649e-05 0.253657 0.012765)
(0.00994517 0.0573117 0.00550223)
(0.000525675 0.00159893 0.000399153)
(0.06527 1.63427 0.0336218)
(0.0475437 1.99919 0.00209297)
(0.758438 10.2046 0.28055)
(0.0190809 28.7541 0.0147234)
(1.34116 0.484728 0.625243)
(0.280596 15.4607 0.279659)
(0.126649 11.0328 0.00886291)
(0.138892 1.8906 0.0269994)
(0.0212864 0.122242 0.0044396)
(0.00137675 0.003857 0.000626132)
(1.90296e-06 0.00418528 0.000123537)
(1.97104e-06 0.00295561 9.84904e-05)
(5.65486e-05 0.000936643 0.000113819)
(5.75042e-06 0.00663307 4.37537e-06)
(5.78485e-05 0.00116602 9.60447e-05)
(2.20151e-05 0.0235093 0.000278538)
(0.000249753 0.0456416 0.00141852)
(1.11059e-05 0.00090734 0.000115735)
(0.000304515 0.0305065 6.53547e-06)
(8.39649e-05 0.0343854 0.00115978)
(3.57517e-06 0.0150019 0.00650499)
(1.72309e-05 0.0136175 0.00172223)
(8.00292e-08 0.0218549 0.000147333)
(1.93499e-06 0.000941841 0.000115427)
(1.28769e-06 0.00126331 0.000191941)
(1.51422e-07 0.00101298 0.000284819)
(1.57817e-06 0.000555693 0.000192298)
(5.13857e-07 0.0008122 5.89307e-05)
(1.53983e-07 3.07154e-06 8.49167e-06)
(2.01266e-07 2.7792e-07 5.52441e-05)
(7.92414e-07 5.90406e-06 1.32894e-06)
(2.97168e-06 0.000752875 9.11018e-05)
(3.40737e-06 0.000876674 0.000570199)
(0.000157191 0.00206734 0.000495751)
(3.20012e-05 0.0134448 3.53274e-05)
(0.00050274 0.00360679 0.00174831)
(0.000964084 0.0119025 0.00165302)
(6.62981e-05 0.0509487 0.000596541)
(0.00111178 0.0091608 0.00023713)
(0.000774583 0.0209957 0.000144948)
(0.00411235 0.0408378 0.0016227)
(0.0004434 0.712313 0.000961248)
(0.0708406 0.51871 0.021712)
(0.00548163 5.77426 0.00880291)
(0.155238 0.1786 0.0575119)
(0.0474539 3.313 0.0344909)
(0.0175838 2.10589 0.000860142)
(0.0201717 0.295429 0.00298704)
(0.00201381 0.0152138 0.000708749)
(9.5609e-05 0.000913042 0.000141688)
(4.88269e-05 2.40362e-06 1.13204e-06)
(8.21999e-08 0.000783241 1.29974e-08)
(1.18284e-08 1.70848e-05 1.0405e-08)
(1.51717e-08 1.41912e-05 5.78465e-08)
(1.2038e-08 3.22189e-05 6.01584e-08)
(2.1195e-08 0.000801282 1.24552e-07)
(1.00611e-08 0.000184383 1.32051e-07)
(6.7608e-09 0.00135744 1.37237e-07)
(9.48926e-09 1.32517e-05 6.74583e-07)
(1.79607e-07 0.00116849 9.41234e-05)
(9.56842e-08 0.00116631 3.26599e-05)
(4.69122e-07 0.0010247 0.000140296)
(6.56766e-09 0.000816647 9.46285e-07)
(3.23404e-08 8.41792e-07 4.28029e-07)
(5.98205e-09 1.71144e-05 0.000100077)
(2.00705e-08 2.56677e-05 0.000118547)
(2.97127e-08 7.63046e-06 5.96126e-06)
(2.00392e-09 2.63876e-07 8.21282e-07)
(1.18776e-11 1.89227e-08 7.45101e-08)
(8.1188e-11 8.88497e-07 1.29375e-09)
(2.47868e-09 2.29387e-06 2.15317e-08)
(1.01871e-07 5.53843e-06 3.09437e-07)
(4.98383e-08 2.30588e-05 1.82032e-07)
(5.25643e-05 3.15191e-05 4.65142e-05)
(9.45932e-07 0.00144952 3.3837e-07)
(0.000201972 0.000489975 2.75528e-05)
(6.80797e-05 0.00134088 0.000165467)
(6.9733e-07 0.00761635 0.000114917)
(4.76506e-05 0.00309931 9.55832e-07)
(8.33493e-05 0.000983608 1.88387e-06)
(5.41422e-05 0.00183959 9.24183e-05)
(9.26389e-05 0.0403113 0.000492021)
(0.00284438 0.00365904 0.000407403)
(0.00117297 0.539128 0.00064683)
(0.00858204 0.046032 0.00285954)
(0.00488407 0.396613 0.00229646)
(0.000952476 0.268726 0.000159403)
(0.00134493 0.025919 0.000205533)
(0.000281862 0.00117178 0.000129449)
(5.37773e-05 0.000655718 6.26163e-07)
(3.54082e-08 1.52536e-06 1.05513e-09)
(2.33652e-11 3.91786e-08 6.7504e-12)
(9.67865e-13 6.69435e-08 9.57124e-13)
(8.68311e-13 6.79791e-08 3.76892e-12)
(3.75516e-13 3.83594e-08 2.94427e-12)
(7.55861e-13 2.68437e-08 8.73595e-12)
(1.74109e-13 1.17106e-07 1.39733e-11)
(6.66529e-13 4.47824e-08 9.75844e-11)
(2.26946e-12 7.00151e-09 2.54791e-09)
(5.5279e-10 2.57463e-08 7.34909e-10)
(3.92775e-11 2.55228e-06 9.22882e-09)
(2.8975e-10 1.51898e-06 4.34082e-07)
(1.02332e-08 8.57694e-07 1.54874e-06)
(7.31838e-12 1.25241e-07 1.03006e-07)
(6.97387e-12 3.87415e-07 2.13034e-07)
(2.71951e-12 3.47304e-07 2.98584e-07)
(1.01422e-11 2.25897e-08 2.58265e-08)
(7.50826e-13 2.21895e-10 2.31091e-10)
(6.45815e-15 1.09978e-12 3.81525e-12)
(3.79246e-15 1.19163e-11 6.08177e-13)
(2.02842e-12 8.47304e-10 4.24328e-11)
(4.45538e-10 2.66764e-08 2.55749e-09)
(1.13146e-07 1.08981e-06 1.4565e-09)
(2.07819e-07 5.4261e-07 8.00535e-11)
(6.93047e-07 0.000548821 5.74435e-08)
(1.65027e-06 7.6689e-06 4.64506e-07)
(1.03746e-06 0.000557842 2.58175e-07)
(5.48924e-07 0.000612257 7.59349e-09)
(6.13074e-07 0.000555531 1.22137e-09)
(1.77792e-07 4.19683e-06 1.48585e-08)
(5.95266e-07 0.000121002 2.62536e-09)
(5.13207e-05 0.000705883 3.71506e-08)
(7.2588e-05 0.000458492 8.03793e-07)
(0.000242584 0.0223519 1.48915e-06)
(0.000294306 0.00776706 0.000124525)
(0.000274875 0.0237178 2.70473e-05)
(1.45899e-05 0.0199541 1.2495e-05)
(6.49208e-05 0.00295822 0.000118563)
(5.2105e-05 0.000596658 7.24054e-07)
(7.4763e-08 3.93197e-07 1.4294e-09)
(9.92151e-11 2.65161e-10 2.65255e-12)
(1.49241e-13 5.48042e-12 3.83435e-15)
(3.46802e-16 3.91371e-12 8.51914e-18)
(2.64244e-17 1.7719e-12 1.21822e-16)
(4.80556e-18 1.292e-12 9.10638e-17)
(1.56819e-17 6.1647e-13 6.14882e-16)
(1.65745e-18 3.14226e-12 1.24397e-15)
(9.9278e-18 3.87626e-13 5.86478e-15)
(2.62789e-17 9.16744e-13 2.91912e-14)
(4.55991e-15 1.9564e-11 3.17932e-16)
(5.02866e-15 6.31615e-09 1.02183e-13)
(6.56836e-14 2.72408e-10 8.79775e-11)
(3.62732e-13 6.21399e-10 7.5087e-09)
(6.25309e-16 4.063e-12 6.10601e-12)
(1.76329e-15 5.78774e-11 3.29106e-11)
(1.49514e-16 9.74305e-11 6.98191e-11)
(1.70067e-15 6.94444e-12 5.08578e-12)
(1.23155e-16 6.06624e-14 3.72256e-14)
(1.13875e-18 2.52613e-16 1.40504e-16)
(1.10821e-19 1.46988e-17 3.54114e-17)
(2.45191e-17 2.92033e-14 3.61342e-15)
(6.01195e-16 1.8626e-11 1.32899e-13)
(3.83545e-13 4.10393e-09 5.61855e-14)
(3.34087e-10 1.04476e-06 2.52437e-15)
(5.36118e-09 2.06412e-06 6.05079e-13)
(8.3197e-09 2.31093e-06 4.24809e-11)
(4.1289e-09 5.87461e-06 3.18925e-11)
(5.2206e-09 2.50574e-06 6.56979e-13)
(9.43305e-11 4.95497e-08 7.68589e-14)
(1.9038e-10 6.1634e-07 9.73115e-13)
(2.67564e-09 1.14937e-06 1.62308e-12)
(7.75154e-09 2.70033e-06 5.03048e-12)
(1.54376e-08 0.00044358 6.94595e-11)
(8.45949e-09 0.000621977 1.0207e-08)
(8.08259e-08 0.000683556 1.17286e-08)
(7.86456e-08 0.000725044 2.22753e-08)
(1.04848e-07 0.000627805 3.26395e-07)
(6.02727e-08 0.000478303 3.41172e-08)
(1.0141e-09 6.86376e-07 1.46554e-10)
(1.16202e-12 9.11632e-10 2.89067e-13)
(2.62049e-16 1.38703e-12 4.10715e-16)
(1.21682e-18 2.76049e-15 5.63714e-19)
(8.10305e-21 1.20628e-16 1.98228e-21)
(2.83196e-22 1.73388e-17 1.45767e-21)
(2.20205e-23 2.11828e-17 1.51862e-21)
(2.10188e-22 7.05258e-18 3.57547e-20)
(8.56265e-24 5.47675e-17 8.04392e-20)
(1.49491e-22 1.58915e-18 2.06499e-19)
(9.30737e-23 4.7945e-18 2.19147e-19)
(9.14963e-21 2.80675e-16 1.32393e-19)
(2.94771e-19 4.09094e-14 2.82954e-17)
(3.60881e-18 3.91381e-14 4.55126e-15)
(4.57711e-19 3.30441e-13 1.42235e-13)
(1.46551e-20 4.16215e-18 1.61175e-16)
(1.30426e-19 4.04613e-15 2.24945e-15)
(8.95808e-22 1.34221e-14 7.82884e-15)
(1.05437e-19 9.35588e-16 4.35011e-16)
(8.02969e-21 8.21605e-18 2.26719e-18)
(7.84044e-23 3.21973e-20 3.67113e-21)
(2.98883e-24 3.52213e-21 3.23343e-21)
(2.05034e-22 1.19461e-18 1.86695e-19)
(1.53639e-20 1.86072e-16 3.73759e-18)
(3.08235e-18 4.65248e-15 1.66089e-18)
(2.78545e-15 2.84071e-12 4.87434e-20)
(2.19854e-13 2.50519e-09 4.1735e-19)
(8.18283e-13 4.08577e-08 2.68299e-15)
(1.004e-13 4.01902e-08 3.60708e-15)
(7.00488e-13 7.15203e-10 7.88432e-17)
(2.38315e-14 7.13155e-12 9.22264e-18)
(8.62893e-16 4.98527e-13 8.25368e-17)
(9.33588e-14 1.25445e-09 2.13103e-17)
(3.32631e-13 2.00784e-08 6.29767e-16)
(4.86777e-13 4.34948e-08 1.23846e-14)
(2.52085e-13 4.75807e-08 5.91549e-13)
(3.01125e-12 1.3544e-08 1.23096e-14)
(1.95463e-12 9.13382e-07 1.38341e-12)
(1.52455e-12 4.56492e-07 3.22957e-11)
(1.77823e-12 7.62349e-09 2.75517e-12)
(2.39378e-14 8.71049e-12 1.63657e-14)
(6.09425e-17 1.94907e-15 4.29242e-17)
(1.19286e-19 9.27765e-18 8.56251e-20)
(2.69302e-22 5.79146e-20 1.52091e-22)
(2.58494e-25 1.16335e-21 4.36208e-25)
(2.58494e-25 4.03621e-23 1.52673e-24)
(3.23118e-26 1.83582e-22 2.90806e-25)
(5.493e-25 3.11985e-23 2.79901e-24)
(4.84676e-26 6.4057e-22 2.76265e-24)
(6.94702e-25 6.65414e-24 5.96152e-24)
(2.58494e-25 5.82338e-23 3.48967e-24)
(2.42338e-25 5.35156e-22 5.59801e-24)
(5.94536e-24 7.23565e-20 1.36875e-21)
(5.79349e-23 2.14518e-18 1.43415e-19)
(9.45494e-22 2.44047e-17 2.13627e-18)
(1.45403e-25 4.69347e-21 2.2926e-21)
(1.05013e-24 7.91986e-20 5.28145e-20)
(1.13091e-25 6.86293e-19 3.48176e-19)
(1.72868e-24 5.03523e-20 1.21614e-20)
(2.58494e-25 5.12435e-22 4.04584e-23)
(2.7465e-25 8.11768e-24 3.63507e-25)
(1.61559e-25 4.45825e-25 2.54455e-25)
(1.61559e-26 2.72904e-24 6.61585e-24)
(9.69351e-26 1.33294e-21 4.57655e-23)
(7.36707e-24 9.5798e-20 1.94113e-23)
(1.6444e-20 1.9328e-17 3.63507e-25)
(4.05662e-18 1.7262e-14 3.88807e-22)
(7.71954e-17 1.36588e-12 1.31548e-19)
(1.83516e-19 4.47609e-12 3.71406e-19)
(7.05985e-17 1.51252e-13 1.12515e-20)
(4.96312e-18 1.53166e-15 8.34975e-22)
(4.24405e-20 4.15966e-17 2.02273e-21)
(1.66691e-18 1.15429e-15 4.64271e-22)
(9.15097e-18 5.86119e-13 1.70142e-20)
(7.49282e-18 2.13727e-12 4.78811e-19)
(1.10805e-17 1.15983e-12 8.99821e-18)
(1.56132e-17 5.44779e-14 5.36677e-20)
(5.88291e-17 1.14997e-11 2.93491e-17)
(1.78159e-17 1.10876e-11 2.28845e-15)
(5.41501e-17 1.48197e-13 2.17702e-16)
(1.13672e-18 3.76953e-16 1.96683e-18)
(5.80157e-21 7.378e-19 7.4582e-21)
(1.96133e-23 1.61839e-21 1.24683e-23)
(2.26182e-25 4.04511e-24 3.99858e-25)
(1.35709e-24 9.14175e-25 1.45404e-25)
(4.03897e-25 2.31171e-25 1.09052e-25)
(2.42338e-25 1.95939e-24 2.54455e-25)
(1.29247e-25 4.60578e-25 2.18104e-25)
(6.46235e-26 3.64148e-24 3.27157e-25)
(9.69352e-26 1.09372e-24 3.99858e-25)
(2.58494e-25 1.62474e-24 1.30862e-24)
(2.10027e-25 8.47736e-24 6.90664e-25)
(9.69352e-26 1.05356e-24 6.90663e-25)
(4.84677e-26 7.13122e-23 1.01419e-23)
(1.61559e-25 3.44404e-22 8.10623e-23)
(3.06961e-25 7.84316e-25 1.81754e-25)
(6.46236e-26 8.06226e-25 1.81754e-25)
(8.07794e-26 5.6742e-24 1.02873e-23)
(1.13091e-25 1.04668e-24 5.0891e-25)
(2.10026e-25 2.04403e-25 1.09052e-25)
(2.10026e-25 8.93324e-25 2.90806e-25)
(6.46236e-26 1.23287e-25 9.81471e-25)
(3.06962e-25 2.24698e-24 3.63507e-26)
(6.46236e-26 3.1216e-25 3.63507e-26)
(2.42338e-25 1.88285e-25 1.09052e-25)
(3.23118e-26 4.58893e-23 1.45403e-25)
(2.20366e-23 8.36898e-20 2.90806e-25)
(5.93053e-21 2.05919e-17 5.56166e-24)
(5.47522e-22 3.79087e-16 3.75867e-23)
(5.32711e-21 2.55923e-17 2.18104e-24)
(7.82027e-22 3.38914e-19 1.09052e-25)
(1.50412e-23 2.5893e-21 5.0891e-25)
(1.67051e-23 1.69494e-20 2.18104e-25)
(1.15417e-22 8.1515e-18 1.81754e-25)
(6.08592e-23 4.81752e-17 6.54312e-25)
(8.64012e-23 1.33825e-17 2.0211e-23)
(7.13234e-22 3.11862e-19 3.27157e-24)
(2.45685e-21 1.35648e-16 3.19995e-22)
(2.35327e-22 2.79577e-16 1.46034e-19)
(2.1957e-21 5.79001e-18 1.67802e-20)
(7.12797e-23 2.98087e-20 1.99057e-22)
(5.00832e-25 7.84135e-23 1.05417e-24)
(8.07794e-26 3.95249e-25 1.09052e-25)
(1.9387e-25 2.14755e-24 1.05417e-24)
(6.46235e-26 2.28242e-24 5.81612e-25)
(1.61559e-26 1.08562e-24 7.99717e-25)
(1.13091e-25 8.36096e-25 7.27014e-26)
(4.03897e-25 3.18087e-25 3.99858e-25)
(2.10026e-25 1.34784e-24 1.09053e-25)
(2.90806e-25 5.22545e-25 1.09052e-25)
(1.77715e-25 5.09323e-25 3.99858e-25)
(2.10026e-25 1.49732e-25 7.63367e-25)
(2.58494e-25 5.03866e-25 6.90663e-25)
(4.68521e-25 2.3842e-25 1.34498e-24)
(2.42338e-25 2.85517e-25 1.99929e-24)
(9.69351e-26 8.39621e-26 1.41768e-24)
(2.7465e-25 1.44438e-25 1.16322e-24)
(9.69351e-26 7.52795e-25 3.63507e-25)
(2.7465e-25 5.39728e-25 7.27014e-26)
(9.69352e-26 3.57824e-25 3.99858e-25)
(4.52364e-25 2.34932e-25 2.18104e-25)
(2.90806e-25 2.82499e-25 1.45403e-25)
(1.29247e-25 1.40731e-24 1.23593e-24)
(1.13091e-25 8.21797e-26 2.18104e-25)
(1.29247e-25 1.05522e-24 1.23593e-24)
(8.07794e-26 8.63534e-25 4.7256e-25)
(1.13091e-25 9.28486e-25 1.09052e-25)
(6.78549e-25 9.13502e-23 9.4512e-25)
(4.84676e-26 2.43403e-20 1.09053e-25)
(1.40556e-24 3.29222e-21 4.36209e-25)
(2.10026e-25 4.76564e-23 2.90806e-25)
(6.46236e-26 2.85038e-25 4.36209e-25)
(4.68521e-25 3.49667e-25 3.27156e-25)
(1.45403e-25 7.6092e-23 3.63507e-25)
(1.29247e-25 4.79835e-22 7.27014e-26)
(6.46235e-26 5.62971e-23 5.0891e-25)
(1.13091e-25 8.45889e-24 3.99858e-25)
(1.77714e-25 2.2684e-21 1.45404e-25)
(3.23118e-26 9.5952e-21 6.5068e-24)
(2.26182e-25 3.33262e-22 1.56308e-24)
(6.46236e-26 2.90646e-24 7.27014e-26)
(2.10026e-25 2.6675e-24 5.81612e-25)
(1.61559e-26 1.22892e-25 7.27014e-26)
(1.9387e-25 9.6575e-25 2.90806e-25)
(1.29247e-25 6.77629e-26 4.7256e-25)
(1.9387e-25 1.32428e-24 2.90806e-25)
(2.58494e-25 1.69819e-25 1.45403e-25)
(1.9387e-25 7.36643e-25 6.17964e-25)
(4.84676e-26 2.8062e-24 5.0891e-25)
(3.23118e-26 5.51881e-25 7.27014e-26)
(6.46236e-26 4.64196e-25 7.63365e-25)
(6.46235e-26 2.21703e-25 1.81754e-25)
(1.9387e-25 1.21422e-24 1.81754e-25)
(6.46235e-26 1.29181e-24 7.27014e-26)
(3.39274e-25 1.80397e-25 2.90806e-25)
(9.69352e-26 5.76282e-25 1.16322e-24)
(6.46235e-26 4.73601e-25 7.27014e-26)
(1.13091e-25 7.41668e-25 2.18104e-25)
(6.46235e-26 6.46523e-25 4.36209e-25)
(1.61559e-26 2.68199e-25 1.09052e-25)
(3.06961e-25 2.67224e-25 1.39962e-42)
(1.61559e-26 1.34898e-24 2.54455e-25)
(2.90806e-25 1.86418e-24 5.45261e-25)
(6.46235e-26 5.65916e-26 1.81754e-25)
(4.84676e-26 2.10632e-25 3.63507e-26)
(6.46235e-26 2.66248e-25 4.7256e-25)
(2.10026e-25 2.92444e-25 7.27014e-26)
(6.46235e-26 7.43222e-25 4.36209e-25)
(8.07795e-26 6.39408e-24 1.09053e-25)
(1.77715e-25 1.85798e-24 8.36065e-25)
(1.77714e-25 1.05831e-24 7.27014e-26)
(1.61559e-25 1.24257e-24 1.81754e-25)
(1.61558e-25 2.00751e-25 7.63367e-25)
(1.13091e-25 3.11983e-25 3.99858e-25)
(1.13091e-25 2.42229e-25 7.27014e-26)
(3.23117e-26 1.28784e-25 2.18104e-25)
(8.07792e-26 1.83912e-25 7.27014e-26)
(4.84677e-26 4.42492e-25 4.72559e-25)
(4.84677e-26 5.07991e-25 7.27014e-26)
(2.10026e-25 5.73001e-25 1.81754e-25)
(1.45403e-25 7.17647e-25 2.54455e-25)
(6.46235e-26 2.58505e-25 1.45404e-25)
(1.29247e-25 2.36603e-25 2.54455e-25)
(1.77714e-25 3.37691e-25 1.09052e-25)
(9.69351e-26 5.34053e-25 1.09053e-25)
(6.46236e-26 6.607e-25 1.09052e-25)
(2.10026e-25 4.51045e-25 5.81612e-25)
(1.61558e-26 1.55991e-25 4.7256e-25)
(2.42338e-25 5.3379e-25 2.90806e-25)
(4.6852e-25 1.65836e-25 4.72559e-25)
(8.07794e-26 9.26507e-27 3.99858e-25)
(2.74649e-25 4.44272e-25 1.45403e-25)
(6.30079e-25 5.36265e-25 8.72416e-25)
(1.61558e-26 3.92594e-25 1.09053e-25)
(1.77715e-25 2.5783e-25 3.63507e-25)
(1.13091e-25 1.12209e-25 7.27014e-26)
(1.29247e-25 2.45731e-25 3.63507e-25)
(1.61559e-26 2.68462e-25 1.81754e-25)
(6.46236e-26 5.23321e-25 2.54455e-25)
(1.9387e-25 5.3542e-26 3.99858e-25)
(1.77715e-25 5.3063e-25 3.63507e-26)
(4.84676e-26 2.76392e-25 2.18104e-25)
(1.77715e-25 5.73986e-25 4.7256e-25)
(4.03897e-25 7.54726e-26 2.90806e-25)
(1.9387e-25 6.76561e-25 6.54314e-25)
(9.69352e-26 7.20388e-25 9.08767e-25)
(3.23118e-26 3.60882e-25 7.27014e-26)
(9.3704e-25 6.40537e-26 1.45403e-25)
(3.23118e-26 2.7996e-25 8.36066e-25)
(5.97767e-25 1.80555e-25 2.18104e-25)
(2.58494e-25 3.50045e-25 6.90664e-25)
(1.13091e-25 4.6447e-25 6.54315e-25)
(1.61559e-26 1.57055e-25 1.45404e-25)
(4.84677e-26 1.6009e-27 1.01782e-24)
(8.07795e-26 6.25817e-25 5.0891e-25)
(6.46235e-26 5.26738e-25 2.54455e-25)
(6.46235e-26 5.63874e-25 4.36209e-25)
(3.23117e-26 1.42034e-25 2.90806e-25)
(0 4.32827e-25 7.27014e-26)
(1.29247e-25 9.38325e-25 3.99858e-25)
(2.58494e-25 8.27826e-26 3.63507e-25)
(8.07792e-26 1.24039e-24 1.81754e-25)
(1.61559e-26 1.3654e-25 3.63899e-42)
(8.07795e-26 7.71193e-25 4.7256e-25)
(1.77715e-25 1.57909e-24 9.08768e-25)
(1.13091e-25 6.13013e-25 1.81754e-25)
(3.23118e-26 1.81787e-25 7.27014e-26)
(1.29247e-25 2.46747e-25 1.01782e-24)
(8.07794e-26 5.96026e-25 2.18104e-25)
(3.06961e-25 1.04206e-24 1.23592e-24)
(9.69352e-26 1.71569e-25 3.63507e-26)
(4.84676e-26 1.93717e-24 3.99858e-25)
(1.45403e-25 4.0137e-25 2.54455e-25)
(9.69351e-26 4.35844e-25 1.45404e-25)
(9.69351e-26 1.37643e-24 1.05417e-24)
(9.69351e-26 1.48872e-25 1.92658e-24)
(9.69352e-26 1.27678e-25 2.90806e-25)
(8.07794e-26 1.49529e-25 6.54314e-25)
(8.07794e-26 3.94353e-26 1.34497e-24)
(7.27016e-25 4.33632e-25 9.0877e-25)
(1.61558e-25 2.20163e-25 3.67142e-24)
(1.45403e-25 9.86226e-25 7.99715e-25)
(2.10026e-25 3.32404e-25 7.27014e-26)
(4.84677e-26 3.84499e-26 1.30862e-24)
(2.42338e-25 1.13682e-25 7.63365e-25)
(4.03897e-25 1.32678e-24 1.16323e-24)
(1.13091e-25 2.4631e-25 1.23593e-24)
(4.84676e-26 5.95161e-25 1.96294e-24)
(4.84676e-26 2.49355e-25 2.54455e-25)
(1.29247e-25 6.95883e-25 5.0891e-25)
(9.69351e-26 3.56227e-25 9.45119e-25)
(2.74649e-25 6.79436e-26 1.81754e-25)
(1.61559e-26 2.54648e-26 1.96294e-24)
(1.13091e-25 6.22723e-26 5.0891e-25)
(1.61559e-26 1.07379e-25 2.18104e-25)
(8.07794e-26 2.26668e-25 1.12687e-24)
(2.10026e-25 5.26622e-25 4.7256e-25)
(4.84676e-26 8.9228e-26 1.59943e-24)
(4.6852e-25 1.9183e-25 1.81754e-25)
(1.9387e-25 2.43266e-25 4.36209e-25)
(1.45403e-25 7.98281e-25 3.99858e-25)
(8.07795e-26 2.67594e-25 1.45403e-25)
(1.13091e-25 6.79436e-26 7.99717e-25)
(1.9387e-25 2.16159e-25 3.63507e-26)
(3.23118e-26 3.31393e-25 2.90806e-25)
(6.78546e-25 8.19141e-26 4.72559e-25)
(3.23118e-26 5.5287e-26 1.45403e-25)
(8.07792e-26 7.42719e-26 2.90806e-25)
(3.39273e-25 3.84499e-26 4.36209e-25)
(8.07794e-26 4.22289e-25 7.63365e-25)
(3.23117e-25 6.56122e-25 1.81754e-25)
(8.07794e-26 8.14087e-26 2.90806e-25)
(1.9387e-25 2.12548e-25 4.7256e-25)
(9.69352e-26 2.44793e-26 6.17964e-25)
(6.46235e-26 2.28642e-25 1.81754e-25)
(2.26182e-25 7.53165e-26 1.01782e-24)
(6.46235e-26 1.05541e-24 7.27014e-26)
(4.84676e-26 2.20755e-25 5.81612e-25)
(6.46235e-26 2.93595e-25 3.27157e-25)
(4.84676e-26 1.22455e-25 3.63507e-26)
(8.07792e-26 6.5469e-25 1.09052e-25)
(1.45403e-25 2.67626e-25 3.99858e-25)
(1.61559e-25 5.84888e-25 1.09052e-25)
(3.55429e-25 1.46932e-25 3.27156e-25)
(1.9387e-25 4.33594e-25 7.27014e-26)
(6.46236e-26 4.42196e-25 1.45403e-25)
(4.84677e-26 1.20154e-25 4.7256e-25)
(2.10026e-25 8.62432e-26 4.36209e-25)
(2.10027e-25 2.71275e-25 2.18104e-25)
(6.46235e-26 1.44165e-25 2.90806e-25)
(1.77715e-25 8.06328e-25 9.08767e-25)
(8.07792e-26 1.36005e-25 2.54455e-25)
(1.61559e-26 3.68642e-25 5.0891e-25)
(8.07795e-26 1.47471e-25 2.90806e-25)
(3.23118e-26 1.73296e-25 1.01782e-24)
(1.77715e-25 3.15576e-26 1.81754e-25)
(2.7465e-25 3.21897e-25 6.17962e-25)
(3.87741e-25 6.92767e-25 5.81612e-25)
(8.07795e-26 2.14702e-25 2.90806e-25)
(2.10026e-25 1.44165e-25 6.90665e-25)
(1.29247e-25 3.83832e-25 3.99858e-25)
(3.23117e-25 3.16309e-25 2.18104e-25)
(6.46235e-26 2.05859e-25 6.17964e-25)
(1.13091e-25 1.60751e-25 5.81612e-25)
(4.84676e-26 1.13662e-24 5.0891e-25)
(1.61559e-26 5.57644e-26 2.54455e-25)
(3.23117e-26 1.16308e-25 1.81754e-25)
(4.84677e-26 2.75172e-25 1.05417e-24)