/*--------------------------------*- C++ -*----------------------------------*\
| =========                 |                                                 |
| \\      /  F ield         | OpenFOAM: The Open Source CFD Toolbox           |
|  \\    /   O peration     | Version:  5.0                                   |
|   \\  /    A nd           | Web:      www.OpenFOAM.org                      |
|    \\/     M anipulation  |                                                 |
\*---------------------------------------------------------------------------*/
FoamFile
{
    version     2.0;
    format      ascii;
    class       volVectorField;
    location    "50.4676134421789371";
    object      TTDissLMean;
}
// * * * * * * * * * * * * * * * * * * * * * * * * * * * * * * * * * * * * * //

dimensions      [0 -2 0 2 0 0 0];

internalField   nonuniform List<vector> 
60000
(
(-19.3235 -2.02064e+07 1007.7)
(-46.0281 -2.05525e+07 953.473)
(17.7988 -2.10223e+07 823.294)
(149.439 -2.10758e+07 515.258)
(64.1439 -2.03498e+07 -147.581)
(-8.13118 -1.97059e+07 -176.313)
(15.453 -1.98396e+07 90.7634)
(7.11787 -2.01555e+07 -74.2585)
(-2.36536 -2.0144e+07 -253.512)
(32.062 -2.00353e+07 -142.177)
(37.6979 -2.01578e+07 91.4122)
(1.32746 -2.04405e+07 270.792)
(-1.74873 -2.06289e+07 206.239)
(9.76791 -2.04899e+07 -168.211)
(2.84198 -2.01913e+07 -525.792)
(-0.907214 -2.02456e+07 -409.089)
(1.49733 -2.07366e+07 52.6589)
(-8.62129 -2.12437e+07 515.787)
(-50.4101 -2.12276e+07 760.885)
(-98.3165 -2.06512e+07 569.676)
(-111.51 -1.97229e+07 115.794)
(-59.204 -1.87153e+07 -37.8095)
(2.37099 -1.80462e+07 1.06292)
(20.7933 -1.77877e+07 -1.84912)
(21.6489 -1.77348e+07 0.304647)
(26.2462 -1.77229e+07 -2.63905)
(16.418 -1.79057e+07 -37.9604)
(-70.4803 -1.86572e+07 -18.6662)
(-107.65 -1.99431e+07 72.939)
(68.936 -2.08848e+07 -339.148)
(96.1997 -2.06297e+07 -1102.2)
(-24.5394 -1.9593e+07 -862.807)
(-1.03117 -1.86963e+07 -244.812)
(-25.6675 -1.86319e+07 182.397)
(-232.601 -1.98103e+07 696.154)
(-22.8234 -2.13495e+07 -167.607)
(180.177 -2.14115e+07 -1934.28)
(5.08442 -2.03581e+07 -1025.48)
(4.90621 -1.98339e+07 -40.1339)
(10.4952 -1.99409e+07 606.844)
(3.62617 1.80229e+06 9845.4)
(35.0217 1.85229e+06 7152.64)
(245.25 1.97404e+06 4605.62)
(455.557 2.09292e+06 2240.48)
(250.813 2.14311e+06 -40.1752)
(17.4033 2.20101e+06 -525.15)
(6.70605 2.28252e+06 127.666)
(56.0798 2.26915e+06 38.5956)
(176.941 2.15904e+06 284.829)
(322.775 1.97813e+06 1420.4)
(239.758 1.76427e+06 2335.65)
(33.7338 1.63854e+06 2285.06)
(20.0067 1.6711e+06 1309.83)
(73.8807 1.82242e+06 -79.2683)
(23.5726 2.00251e+06 -748.602)
(-8.80436 2.09187e+06 324.46)
(-5.68428 1.97741e+06 2227.99)
(26.2598 1.67442e+06 3494.84)
(50.6776 1.30481e+06 3861.83)
(13.0509 1.04993e+06 2998.17)
(-30.0083 884290 1010.45)
(37.6527 746423 -52.2357)
(179.247 625216 25.287)
(207.693 522775 22.3052)
(161.163 463510 -20.9927)
(136.836 426344 11.104)
(100.576 370001 -29.1738)
(-104.563 301310 -33.368)
(-159.603 286671 156.629)
(340.477 348923 -271.955)
(439.545 427647 -800.368)
(9.08115 508001 982.178)
(-79.3037 614283 3183.26)
(18.9628 777219 3549.55)
(-163.119 1.00954e+06 3060.7)
(392.464 1.29002e+06 835.407)
(840.234 1.49376e+06 -626.809)
(163.452 1.65159e+06 4241.49)
(-13.2466 1.78891e+06 9635.71)
(45.4121 1.80788e+06 11157.1)
(25.9141 1.95283e+06 4618.39)
(-1.30085 1.89035e+06 3404.24)
(68.4877 1.73768e+06 2197.73)
(168.678 1.53095e+06 1182.6)
(115.755 1.34574e+06 95.6418)
(31.9905 1.26625e+06 -495.698)
(-16.2949 1.28865e+06 -266.243)
(-36.962 1.36587e+06 -103.166)
(-8.0943 1.5089e+06 -115.7)
(95.3917 1.73087e+06 314.679)
(152.478 1.95471e+06 1012.38)
(51.1304 2.07392e+06 1292.52)
(-17.4395 2.05673e+06 846.396)
(-4.48332 1.952e+06 -81.6751)
(-10.5852 1.84781e+06 -765.686)
(1.9062 1.79932e+06 -490.067)
(-21.7134 1.79594e+06 341.621)
(-138.845 1.82677e+06 907.863)
(-126.377 1.90386e+06 1426.84)
(-10.3724 2.09206e+06 1885.56)
(5.92732 2.36454e+06 1088.57)
(47.8762 2.59906e+06 90.9443)
(143.489 2.75975e+06 38.6202)
(148.64 2.84899e+06 40.9595)
(102.653 2.89357e+06 5.16251)
(112.124 2.9349e+06 87.6392)
(136.361 2.98178e+06 49.9651)
(-11.7161 2.97435e+06 -95.8561)
(-123.513 2.87213e+06 -15.5753)
(205.198 2.70645e+06 9.88587)
(352.517 2.54895e+06 -94.4982)
(91.56 2.48001e+06 688.231)
(-55.4132 2.50601e+06 1933.44)
(12.3906 2.55217e+06 2496.62)
(-5.16613 2.5022e+06 2264.96)
(258.85 2.28838e+06 958.171)
(500.092 1.99051e+06 -3.64783)
(184.988 1.813e+06 1238.2)
(-1.26897 1.82911e+06 3438.25)
(31.6356 1.91591e+06 4830.98)
(6.63866 106808 629.646)
(0.58187 120734 523.409)
(-0.744957 105284 328.008)
(8.16151 69167.9 188.047)
(1.68327 38221.1 -64.9962)
(0.365556 19635.9 -332.928)
(-6.27724 4643.44 -227.11)
(-19.751 -7283.67 59.5775)
(-20.6719 -7874.7 116.092)
(-22.7226 11927.8 8.90805)
(-10.0459 53880 56.006)
(1.41423 102685 185.769)
(-18.1934 128607 29.3503)
(-44.8476 119456 -335.954)
(-42.9731 94923.3 -564.944)
(3.02538 73287.9 -492.796)
(24.5068 55639.8 -374.482)
(-114.062 37190 -597.936)
(-240.11 30197.5 -688.983)
(-28.1314 64035.3 304.447)
(61.0535 144566 1029.9)
(-81.5885 245918 435.604)
(-108.182 329204 21.599)
(-41.1382 369226 -1.57593)
(15.1332 369115 1.33089)
(46.2983 367839 22.2583)
(81.4469 391776 12.5799)
(19.7113 413466 -108.144)
(-135.037 387879 -96.0668)
(-7.37888 331208 54.5641)
(156.491 284221 -87.5813)
(67.4215 262668 -136.963)
(-31.7598 268127 128.196)
(7.09983 288179 341.073)
(11.6297 281743 541.835)
(11.5511 219421 489.824)
(89.2252 141041 109.506)
(40.307 89807.6 12.3313)
(1.46349 73047.9 191.143)
(2.5053 83289.9 447.725)
(0.0187641 -12921.8 103.351)
(-1.21725 -11590.5 133.451)
(-1.39686 -10787 66.9899)
(-0.933475 -10107.5 22.556)
(-1.98332 -8288.69 -45.9996)
(-0.464486 -6997.11 -150.58)
(1.28183 -7896.38 -60.3826)
(-6.23829 -10576.9 169.012)
(-8.55028 -13157.5 157.403)
(-9.76467 -16023.2 -18.4983)
(-6.97586 -18942.7 -27.3679)
(11.2239 -19256.4 145.889)
(2.14578 -16879.8 103.315)
(-27.9454 -13644.5 -171.342)
(-21.789 -10650.7 -225.518)
(16.8623 -8710.89 -64.6439)
(48.7648 -9841.7 17.7315)
(-22.5626 -16036.5 -254.433)
(-215.277 -24360.4 -731.49)
(-58.9003 -23975.2 -235.133)
(249.856 -18319.1 1175.28)
(23.2343 -15075.7 1117.69)
(-171.945 -10452.4 329.618)
(-45.028 -6831.09 30.8971)
(85.8008 -4637.4 -0.465496)
(63.855 -1912.44 -0.5604)
(35.2423 1694.06 1.94511)
(28.7529 5174.44 -35.4153)
(-69.2654 65.9603 -72.4153)
(-51.8896 -12123.5 56.2947)
(90.3055 -16703.1 -19.3244)
(56.7964 -15128.5 -166.612)
(-17.7599 -11953 -70.1909)
(-2.15872 -8355.58 13.7281)
(20.4311 -7438.06 105.049)
(-8.57069 -11239 200.79)
(14.8458 -13573.2 90.3123)
(3.91611 -12848.5 -10.6312)
(0.103221 -12625.7 -10.7953)
(0.811723 -13284.3 20.3386)
(-0.0428085 -1127.83 18.3162)
(0.141941 -753.189 57.828)
(0.05748 -379.508 39.4607)
(0.0751271 -15.4645 10.1563)
(-0.157324 418.436 -10.6121)
(-0.371205 584.033 -45.4952)
(1.01328 287.619 -4.56878)
(0.327625 -276.386 107.241)
(-1.63387 -721.514 92.4022)
(-2.31643 -1115.72 -25.9457)
(-3.68169 -1861.03 -33.2519)
(3.36212 -1795.21 76.3826)
(11.3922 100.769 154.766)
(-4.0688 1889.24 21.0667)
(-8.97816 2361.5 -69.2655)
(4.75047 1916.47 27.3575)
(21.6557 597.13 106.353)
(25.7481 -1640.99 18.2677)
(-104.073 -5611.93 -272.887)
(-120.52 -7297.26 -379.832)
(228.046 -2947.47 666.488)
(134.01 -1032.02 1144.82)
(-132.125 -1743.15 416.654)
(2.22527 -308.744 21.985)
(129.362 1204.73 1.249)
(60.0123 868.553 1.3917)
(5.90395 420.141 -0.981044)
(2.46246 -4.53462 8.85494)
(4.69084 -346.165 -4.19504)
(-32.8936 -3913.89 1.87757)
(17.063 -5526.16 3.22615)
(45.5162 -2586.58 -79.5217)
(3.33746 -361.194 -27.9748)
(-7.11543 -51.4368 27.7485)
(10.9054 -1037.21 50.4026)
(-1.03536 -2314.32 103.293)
(1.52389 -2177.44 52.8119)
(2.45726 -729.725 -11.0107)
(-0.157941 -415.851 -7.0074)
(1.85072 -958.056 -1.76632)
(0.160588 80.8697 2.61529)
(0.000511466 135.932 13.7681)
(0.00830454 280.393 18.8497)
(0.0218474 368.996 6.9182)
(0.0483917 435.866 0.527602)
(-0.0218734 473.115 -9.00786)
(-0.0296184 373.259 -1.26278)
(0.314818 209.029 33.0583)
(-0.0317526 98.3681 34.666)
(-0.326767 60.8401 -4.17807)
(-0.779364 -51.7487 -12.4789)
(-0.146565 -160.158 18.3034)
(2.64195 286.126 50.7061)
(1.00807 1200.84 39.7442)
(-1.59457 1525.44 -5.81054)
(-0.496028 1172.36 -0.446767)
(-0.22 540.067 29.9482)
(15.0311 15.9685 18.8157)
(-15.2799 -808.858 -47.0461)
(-102.689 -2786.15 -190.316)
(115.857 -2185.23 163.575)
(130.196 337.907 604.484)
(-77.2286 2177.48 185.815)
(32.2745 3070.4 -11.1672)
(73.301 1700.63 11.815)
(20.8646 344.548 2.5422)
(1.33233 63.0741 -0.311816)
(0.062878 46.7412 -0.506578)
(-0.24152 -19.4313 2.53123)
(1.15715 28.729 -0.709186)
(-4.88483 -911.147 2.60038)
(5.69769 -553.961 -16.3654)
(7.27834 789.285 -10.5925)
(-1.113 1142.57 18.5363)
(0.388057 580.84 20.1863)
(1.31403 58.6247 36.3452)
(-0.488889 -73.8161 29.3749)
(0.72622 338.746 -3.41582)
(-0.139468 506.375 -0.436138)
(0.487202 263.609 3.22058)
(0.0264958 31.5185 0.894188)
(0.00271511 25.3439 1.64455)
(-0.00382255 40.721 3.94533)
(0.00430418 49.7481 2.05982)
(-0.0180774 57.3293 0.844791)
(0.0276925 74.2405 -0.640789)
(0.00251689 81.5121 -1.43104)
(0.00567481 53.8825 5.30219)
(0.0277107 28.7235 7.83964)
(-0.0329642 19.5207 1.12425)
(-0.174347 6.54752 -3.04994)
(-0.0586058 -17.6326 3.02373)
(0.496449 5.6551 9.60458)
(0.191612 123.26 10.49)
(-0.145086 227.961 2.88604)
(0.0871288 209.04 -1.10038)
(-1.10557 124.055 3.62504)
(-0.211553 -22.924 2.83812)
(9.99626 83.0096 -2.31966)
(-47.1933 -507.92 -42.3474)
(37.1018 -1381.78 19.4315)
(72.2672 -248.813 166.393)
(-31.5177 1622.58 29.6269)
(22.7239 1521.03 -2.72048)
(23.2638 400.582 6.4583)
(3.84606 40.648 1.04826)
(0.469985 0.200644 -0.0236215)
(0.0134921 -1.38199 -0.00295156)
(0.0424158 9.294 -0.0635841)
(-0.0333771 -2.88833 0.20344)
(0.123751 6.47967 -0.0688309)
(-0.352209 -105.64 0.0894202)
(0.435505 -11.8863 -3.36341)
(0.630695 182.184 1.10042)
(-0.0914539 165.691 3.55045)
(0.0569882 60.044 5.88036)
(0.0121736 15.3951 8.62198)
(0.00914833 48.2826 0.779629)
(0.00442584 97.4512 -0.494429)
(0.0145039 68.4691 1.36576)
(0.00102358 3.75938 0.242346)
(3.28699e-05 2.76329 0.229251)
(4.45133e-05 2.91288 0.484371)
(0.00357345 2.61432 0.288502)
(0.000720009 1.69053 0.109558)
(-0.00162709 2.3637 0.133728)
(0.00313894 5.0594 -0.228178)
(-0.000640898 5.41443 0.3098)
(0.00114403 2.8659 0.915958)
(0.000191974 1.33664 0.464104)
(-0.0382579 -0.325026 -0.464007)
(-0.0195701 -3.269 0.24877)
(0.153863 -2.10029 1.7237)
(0.0122389 11.0184 1.80739)
(-0.00984801 23.318 0.828284)
(0.0609089 19.3922 -0.0975555)
(0.0353832 18.7349 0.293289)
(-1.2004 -0.987683 0.264661)
(4.20073 -4.42443 0.54142)
(-10.2362 75.8656 -4.46281)
(5.07765 -485.109 -0.241363)
(25.8525 -166.172 29.1389)
(-8.59134 693.117 2.18412)
(7.40137 424.272 0.348623)
(5.81061 69.8976 1.39843)
(0.852975 6.39917 0.212274)
(0.0447077 0.535234 0.00600393)
(0.0068537 0.131576 0.000147936)
(0.000116457 -0.192661 0.00179544)
(0.00318936 0.445691 -0.00193862)
(-0.00214808 -0.204634 0.00350038)
(0.0080495 1.1457 0.0175238)
(-0.013931 -6.00415 -0.0298016)
(0.0106734 -1.21303 -0.226349)
(0.0420318 12.1347 0.0750417)
(0.0012476 9.84864 0.32624)
(0.00155905 3.98101 0.97764)
(0.000368089 3.55341 0.448881)
(0.000382769 6.48531 -0.134396)
(-3.71569e-05 6.43974 0.177307)
(1.56536e-05 0.225103 0.0220906)
(3.01402e-05 0.187759 0.0428136)
(0.000208465 0.155602 0.0587622)
(-0.000127536 0.0950468 0.0263102)
(0.000243438 0.0189087 0.00418492)
(0.000108359 0.000863773 0.00766897)
(-5.93583e-06 0.00369195 -0.00316285)
(9.33371e-05 0.123128 -0.00100291)
(-0.000223472 0.144796 0.0341301)
(0.00121225 0.0352308 0.0464359)
(-0.00642715 -0.117081 -0.0400863)
(-0.00428917 -0.749574 0.0222239)
(0.0379441 -0.743046 0.239341)
(0.00173699 2.03148 0.196363)
(-0.00413065 3.10112 0.0967633)
(0.0339994 1.24851 0.00643533)
(-0.00280323 0.0791685 0.000564676)
(-0.0617951 6.0321 0.071135)
(0.298284 -11.9833 -0.0276956)
(-0.707144 38.2541 0.11938)
(-0.575668 -92.4533 -0.789043)
(5.92362 -53.9606 3.89019)
(-1.58494 196.119 0.213797)
(1.5822 94.7405 0.112538)
(1.11381 13.7272 0.221805)
(0.146958 0.853342 0.0330492)
(0.00796929 0.0292439 0.00380421)
(3.19979e-05 0.0105923 0.000286517)
(4.81839e-06 0.0149554 7.1947e-05)
(-1.88985e-05 -0.00568981 0.000364225)
(8.8636e-06 0.0162117 -1.00805e-05)
(-8.62134e-05 -0.0167584 -0.000343271)
(1.7418e-05 0.0761878 0.00132766)
(-6.71253e-05 -0.150757 -0.00272293)
(-8.82205e-05 -0.101232 -0.00374032)
(0.00191698 0.468239 0.00179686)
(0.000207034 0.44535 0.0213772)
(-1.42835e-05 0.242139 0.040134)
(-6.23371e-06 0.248634 -0.0081131)
(-8.50588e-06 0.34877 0.00855981)
(6.59486e-06 0.0152329 0.0028507)
(-3.81596e-06 0.0172462 0.00257778)
(2.88767e-06 0.00971266 0.00260616)
(5.967e-06 0.00517696 0.00155593)
(3.79319e-07 0.00395618 0.000725472)
(1.21948e-07 6.67943e-05 7.02154e-05)
(-1.5e-06 -3.06933e-06 9.52651e-05)
(3.92292e-06 2.64826e-05 -1.17871e-05)
(-1.61536e-05 0.00349039 -0.00101958)
(1.88068e-05 -0.000110947 0.00340345)
(-0.000156134 0.00541846 -0.00209375)
(-0.00140523 -0.0648942 -0.000358258)
(0.00349973 -0.12625 0.0200526)
(0.000720292 0.207277 0.012696)
(-0.00206371 0.425738 0.00463915)
(0.00761265 0.0741541 0.00111421)
(-0.00110741 -0.12295 -0.00150208)
(0.00820567 0.323924 0.00607291)
(-0.0130871 -0.2559 -0.0108291)
(0.021707 2.84964 0.0500761)
(-0.21589 -7.97846 -0.124855)
(0.768305 -12.5166 0.365815)
(-0.163338 37.8166 0.0403244)
(0.207692 16.8178 0.00979021)
(0.151891 2.0681 0.0248162)
(0.013086 0.0963155 0.00481036)
(0.000604707 0.00420589 0.000633781)
(0.000238508 -3.64056e-06 1.5146e-06)
(2.71545e-07 0.00167022 3.39591e-08)
(3.03551e-11 2.4436e-05 2.50997e-08)
(5.37185e-09 -0.000117192 2.34499e-08)
(1.30086e-09 5.02335e-05 1.29125e-08)
(1.00427e-08 0.000631507 8.92975e-08)
(2.40643e-11 7.56781e-05 4.2145e-08)
(8.17852e-09 -0.0013033 4.79902e-11)
(3.95505e-10 -0.00134316 1.25189e-08)
(2.07565e-06 0.0164673 -0.00021292)
(1.17551e-07 0.0111621 6.57842e-05)
(2.71497e-07 0.0114368 -0.000187709)
(-9.15855e-07 0.0135551 -0.000133246)
(2.27184e-08 2.9292e-05 -2.87108e-06)
(1.21485e-08 0.000135349 0.000760555)
(1.33217e-08 9.50302e-05 0.000863568)
(2.79305e-08 5.61802e-06 2.61158e-05)
(1.27845e-09 3.52218e-07 6.82995e-07)
(7.59758e-12 1.2813e-08 4.89739e-08)
(5.04902e-11 4.80657e-07 4.38559e-09)
(9.24805e-10 -1.85287e-05 1.51561e-08)
(4.73954e-08 3.77166e-05 -2.29942e-06)
(-1.98629e-06 -0.000107865 8.87742e-07)
(0.000108307 0.000136178 1.40315e-05)
(-5.93365e-05 -0.00123477 -3.07571e-05)
(0.00118902 -0.0150254 0.000127821)
(-3.91252e-07 0.0174773 0.00122681)
(-8.47612e-06 0.0622315 0.000404976)
(0.000481737 0.0109204 1.14486e-05)
(0.000296976 0.00352713 -1.91658e-05)
(0.000364409 -0.0153951 0.000585358)
(-0.000509939 0.0663023 -0.000174213)
(0.00400826 -0.0174704 0.00119633)
(-0.0180965 -0.12436 -0.00443733)
(0.0501274 -1.70272 0.016683)
(-0.00483752 4.23725 0.00191272)
(0.0108915 2.02348 0.00227679)
(0.00946309 0.17344 0.0013289)
(0.00160306 0.00726638 0.000590827)
(0.000189591 0.00319701 1.23049e-06)
(1.35115e-07 4.30125e-06 1.63018e-09)
(8.45753e-11 4.96373e-08 5.4446e-13)
(3.45724e-13 2.47781e-08 1.3221e-12)
(1.30874e-13 4.08852e-08 7.36831e-13)
(2.05774e-14 1.27721e-08 3.19646e-13)
(1.73409e-13 4.77957e-09 2.93374e-12)
(5.50135e-15 6.59029e-08 2.9847e-12)
(2.29145e-13 2.60287e-09 2.34261e-11)
(5.44096e-13 5.92469e-09 1.72847e-09)
(2.24534e-10 1.54013e-08 5.20694e-11)
(1.73789e-11 2.6488e-05 3.90491e-09)
(2.09624e-10 1.29688e-06 3.48307e-07)
(3.21894e-09 -1.03059e-05 -1.22852e-05)
(2.46961e-12 4.04234e-08 3.8723e-08)
(5.74417e-12 2.55489e-07 1.98381e-07)
(7.19663e-13 3.23176e-07 3.38421e-07)
(6.18728e-12 1.44231e-08 1.80704e-08)
(3.474e-13 1.19997e-10 1.25981e-10)
(2.55417e-15 6.99523e-13 2.0505e-12)
(3.03041e-16 3.10624e-12 1.72767e-13)
(3.67778e-13 5.24394e-10 1.38806e-11)
(1.28729e-10 1.00054e-08 1.62696e-09)
(6.01623e-08 5.0121e-07 1.04844e-09)
(1.97397e-06 -1.97043e-05 2.79145e-11)
(-5.97773e-06 0.00108155 2.12158e-08)
(1.15198e-05 -0.000427818 2.30409e-07)
(-7.83269e-06 0.00533664 2.45223e-07)
(3.10038e-06 0.00431556 2.23909e-08)
(4.4433e-07 0.00195797 1.44203e-09)
(-1.55143e-06 -8.7157e-05 7.96252e-09)
(3.13574e-07 0.000129509 9.94342e-09)
(-2.29483e-05 0.0030432 1.04943e-08)
(0.000285072 -0.00543385 2.62561e-07)
(-0.000898034 0.0204038 -3.38961e-05)
(0.00213137 -0.131528 0.00039177)
(0.000153981 0.246601 -1.39739e-05)
(-2.54391e-06 0.139536 3.93656e-06)
(0.000393865 0.0169756 0.000551369)
(0.0001828 0.00210413 1.43296e-06)
(2.55941e-07 1.50142e-06 2.09994e-09)
(3.11866e-10 8.85892e-10 2.78778e-12)
(3.96891e-13 7.5936e-12 4.24462e-15)
(4.42228e-16 5.94235e-13 8.09307e-18)
(4.48026e-18 6.35703e-13 1.24855e-17)
(6.57935e-20 1.92271e-13 5.37454e-18)
(1.91293e-18 1.01088e-13 1.00444e-16)
(1.70465e-19 9.0874e-13 1.96673e-16)
(2.517e-18 4.90002e-15 1.41114e-15)
(2.55809e-18 4.18078e-13 2.10899e-14)
(7.69491e-16 5.73139e-12 1.42037e-18)
(1.15436e-15 2.57083e-09 2.64748e-14)
(2.48778e-14 1.32787e-10 3.02356e-11)
(1.18894e-14 5.66863e-12 4.23806e-09)
(9.08542e-17 1.83538e-13 7.46759e-13)
(7.21534e-16 1.90008e-11 1.44267e-11)
(4.45784e-18 5.89047e-11 4.69009e-11)
(6.46603e-16 3.21016e-12 2.53718e-12)
(4.25542e-17 2.35165e-14 1.61058e-14)
(3.41625e-19 9.18546e-17 5.59428e-17)
(1.35137e-20 3.04677e-19 2.13891e-18)
(6.90848e-18 1.86105e-15 6.80918e-16)
(9.04416e-16 3.37441e-12 4.68862e-14)
(1.7577e-14 1.183e-09 2.70566e-14)
(3.84807e-11 5.5401e-07 8.14205e-18)
(2.00361e-09 1.86533e-05 2.82232e-14)
(2.95638e-09 -3.493e-05 8.43342e-12)
(1.49623e-09 3.41798e-05 1.57477e-11)
(2.23179e-09 1.96728e-06 1.2337e-12)
(4.02966e-11 1.03181e-07 5.00821e-14)
(3.50588e-11 3.75891e-07 4.02293e-13)
(5.78054e-10 -9.87247e-06 4.11693e-13)
(5.87556e-10 -6.16467e-06 1.75162e-12)
(2.07826e-08 0.000364267 1.37475e-11)
(1.69463e-09 0.0020764 6.24724e-09)
(1.27229e-08 -0.00490765 1.8443e-09)
(1.02236e-07 0.00782958 6.72113e-10)
(3.20299e-08 0.00383063 1.6578e-07)
(6.13455e-08 0.00167796 6.14382e-08)
(2.86598e-09 2.3493e-06 2.21324e-10)
(2.88015e-12 2.86363e-09 3.51471e-13)
(7.38804e-17 3.65815e-12 4.03239e-16)
(3.67627e-18 3.81383e-15 4.01446e-19)
(1.72575e-20 2.69424e-17 1.1182e-21)
(9.7484e-23 3.73694e-18 7.37274e-23)
(-0 1.4834e-18 5.89819e-23)
(1.63839e-23 1.33778e-18 3.24401e-21)
(2.18452e-24 8.81969e-18 1.00531e-20)
(2.70334e-23 8.73908e-21 4.7698e-20)
(5.46129e-25 3.36192e-18 1.91819e-19)
(4.96158e-22 2.25461e-17 1.46054e-20)
(4.19353e-20 6.74492e-15 3.52896e-18)
(7.86864e-19 9.61069e-15 8.83686e-16)
(1.12142e-18 1.56056e-13 5.11667e-14)
(5.95698e-22 5.4864e-18 4.5576e-18)
(2.87508e-20 5.64904e-16 4.86874e-16)
(6.27487e-22 5.08e-15 3.45038e-15)
(2.46245e-20 3.22987e-16 1.77851e-16)
(2.12403e-21 2.50818e-18 9.16776e-19)
(2.04091e-23 8.48524e-21 1.55295e-21)
(0 2.98489e-22 2.67916e-22)
(3.21598e-23 1.70102e-19 2.35135e-20)
(3.47326e-21 5.22017e-17 7.75464e-19)
(1.43827e-19 6.87169e-15 5.19252e-19)
(4.58331e-17 1.37554e-13 5.48819e-21)
(2.3188e-14 2.86498e-10 2.25088e-19)
(1.4159e-13 1.49663e-08 1.97572e-16)
(7.0766e-15 1.74434e-08 9.55801e-16)
(1.29061e-13 2.65174e-10 7.87949e-17)
(4.80927e-15 6.88278e-12 3.06551e-18)
(3.23554e-16 1.21841e-12 1.92823e-17)
(3.96202e-15 1.85192e-10 8.48897e-18)
(3.61745e-14 4.49584e-09 3.82475e-17)
(4.33004e-13 6.42024e-09 2.11473e-15)
(8.08903e-15 1.07873e-07 2.37962e-13)
(1.10725e-12 3.7246e-08 6.46621e-17)
(8.78123e-13 4.06388e-07 1.53478e-14)
(6.53538e-14 4.67272e-07 7.82499e-12)
(1.0403e-12 2.15428e-08 3.1858e-12)
(4.01325e-14 2.15846e-11 1.74495e-14)
(9.18868e-17 5.3367e-16 3.7743e-17)
(1.51495e-19 2.79487e-17 5.98521e-20)
(3.14424e-22 1.2836e-19 8.16363e-23)
(2.47383e-25 5.36343e-22 7.42149e-25)
(2.47383e-25 2.58593e-24 0)
(2.47383e-25 9.98436e-24 0)
(2.47383e-25 6.10546e-24 3.71074e-25)
(0 5.66718e-23 2.22645e-24)
(2.47383e-25 -0 2.22645e-24)
(-0 5.38007e-23 2.22645e-24)
(0 8.65103e-24 -0)
(7.42149e-25 4.49226e-21 1.06869e-22)
(1.18744e-23 3.13515e-19 1.70323e-20)
(8.05231e-23 5.59585e-18 6.32198e-19)
(2.24117e-25 3.92222e-22 6.7235e-25)
(1.12058e-25 2.76754e-21 5.74455e-21)
(0 1.60313e-19 1.18702e-19)
(1.12058e-25 1.31919e-20 4.82209e-21)
(3.36175e-25 1.16924e-22 2.35322e-23)
(2.07099e-40 0 0)
(4.48233e-25 0 -0)
(1.12058e-25 2.01766e-24 6.7235e-25)
(-0 2.12572e-22 9.41289e-24)
(3.36175e-25 2.1877e-20 1.3447e-24)
(8.33713e-23 9.18123e-19 0)
(8.60392e-20 2.87809e-16 6.05115e-24)
(6.2634e-18 1.43789e-13 3.38326e-21)
(1.916e-19 8.41318e-13 5.5686e-20)
(5.64775e-18 2.89297e-14 5.74455e-21)
(5.32734e-19 6.41197e-16 1.99688e-22)
(1.69735e-20 4.04799e-18 4.80058e-22)
(6.33802e-21 3.73764e-16 3.05919e-23)
(6.14405e-19 2.38337e-14 4.57198e-23)
(4.34504e-18 2.05532e-13 6.63038e-20)
(6.0746e-19 2.19296e-12 2.97122e-18)
(1.27987e-18 5.27806e-14 7.18876e-21)
(1.84589e-17 1.28495e-12 1.48505e-20)
(1.80889e-20 6.5368e-12 2.85471e-16)
(1.76982e-17 2.48413e-13 1.53093e-16)
(1.0074e-18 5.68433e-16 1.40228e-18)
(5.13944e-21 9.4007e-19 4.73805e-21)
(1.56882e-23 2.0607e-21 9.41289e-24)
(6.7235e-25 5.16813e-24 6.7235e-25)
(-0 5.01103e-24 3.36175e-25)
(-0 1.11356e-24 6.7235e-25)
(0 1.11356e-24 6.7235e-25)
(0 2.01766e-24 0)
(7.57639e-39 1.32302e-24 -0)
(4.5907e-39 5.23652e-26 -3.36175e-25)
(4.48233e-25 -0 6.7235e-25)
(4.48233e-25 3.23596e-24 4.0341e-24)
(0 0 3.36175e-25)
(0 7.13877e-25 3.36175e-25)
(-0 7.90437e-23 2.35322e-23)
(2.03038e-25 -0 -0)
(2.03038e-25 2.6559e-24 6.09115e-25)
(-0 1.74195e-24 -0)
(1.84141e-40 2.87079e-24 1.82735e-24)
(1.01519e-25 0 0)
(0 5.13988e-24 0)
(-0 -0 3.04558e-25)
(0 -0 -1.69029e-33)
(0 8.5957e-26 3.04558e-25)
(4.06077e-25 0 0)
(2.03038e-25 6.46783e-24 1.69029e-33)
(-0 3.72471e-22 3.04558e-25)
(2.26997e-22 4.31808e-19 1.69029e-33)
(4.82216e-23 3.14615e-17 4.87292e-24)
(2.03038e-22 2.69204e-18 0)
(5.32976e-23 7.01249e-20 6.09115e-25)
(3.04558e-25 0 -3.04558e-25)
(0 7.87523e-22 -0)
(5.48204e-24 3.22202e-20 0)
(2.1116e-23 3.22079e-18 3.04558e-25)
(4.87292e-24 2.0364e-17 4.26381e-24)
(4.43639e-23 1.61221e-21 -3.04558e-25)
(4.43233e-22 3.86123e-18 2.01008e-23)
(1.97962e-23 9.26552e-17 1.03939e-20)
(4.37243e-22 5.13264e-18 7.37029e-21)
(4.02016e-23 2.64228e-20 1.05072e-22)
(2.03038e-25 7.67719e-23 -3.04558e-25)
(-0 1.8279e-24 -3.04558e-25)
(0 0 0)
(0 -0 2.74102e-24)
(0 0 0)
(4.06077e-25 0 8.45147e-34)
(-0 4.99954e-25 1.82735e-24)
(2.03038e-25 1.8279e-24 -0)
(1.01519e-25 4.56976e-25 -3.04558e-25)
(2.03038e-25 2.87079e-24 0)
(2.03038e-25 8.5957e-26 1.69029e-33)
(1.21823e-24 0 -3.04558e-25)
(2.03038e-25 1.28936e-25 9.13673e-25)
(9.13673e-25 4.29785e-26 -1.69029e-33)
(1.83943e-25 -0 2.75914e-25)
(3.67885e-25 3.52744e-26 2.75914e-25)
(1.83943e-25 7.05489e-26 -0)
(0 1.42969e-24 -0)
(3.67885e-25 7.05489e-26 5.51828e-25)
(3.67885e-25 0 -0)
(1.83943e-25 7.50122e-25 0)
(3.67885e-25 8.2067e-25 5.51828e-25)
(-0 7.05489e-26 -2.75914e-25)
(7.35771e-25 0 -0)
(1.83943e-25 8.91219e-25 0)
(0 4.10335e-25 2.75914e-25)
(3.67885e-25 3.52744e-26 2.48323e-24)
(1.83943e-25 8.81515e-22 0)
(3.67885e-25 2.13759e-22 1.53132e-33)
(0 8.2067e-25 0)
(0 0 -0)
(1.83943e-25 8.2067e-25 -0)
(5.51828e-25 7.05489e-26 0)
(1.83943e-25 2.94405e-23 -7.65661e-34)
(1.23231e-39 7.92566e-23 0)
(-0 0 -7.65659e-34)
(0 2.05096e-23 -0)
(0 1.88232e-21 5.51828e-25)
(3.67885e-25 1.71117e-22 5.51828e-25)
(0 4.4561e-25 0)
(-0 0 0)
(0 0 5.51828e-25)
(8.13791e-40 8.2067e-25 -2.75914e-25)
(1.83943e-25 7.05489e-26 2.75914e-25)
(0 3.52744e-26 2.75914e-25)
(0 -0 -2.75914e-25)
(-0 3.75061e-25 0)
(0 0 -2.75914e-25)
(0 1.35915e-24 -0)
(1.83943e-25 3.52744e-26 1.65548e-24)
(4.09221e-39 7.50122e-25 7.65659e-34)
(0 0 -0)
(0 4.4561e-25 1.53132e-33)
(-0 3.75061e-25 1.65548e-24)
(-0 1.23132e-24 4.99929e-25)
(-0 3.07829e-25 2.49964e-25)
(0 1.17342e-24 9.99857e-25)
(-0 3.07829e-25 7.49893e-25)
(-0 1.17342e-24 4.99929e-25)
(-0 1.23132e-24 0)
(-0 1.67327e-24 4.99929e-25)
(0 1.17342e-24 0)
(0 6.15659e-25 2.49964e-25)
(0 0 -2.49964e-25)
(0 6.73562e-25 0)
(-0 3.07829e-25 0)
(-0 5.86708e-25 0)
(0 0 0)
(0 6.15659e-25 0)
(-0 3.36781e-25 4.99929e-25)
(0 0 2.49964e-25)
(0 1.17342e-24 4.99929e-25)
(0 6.15659e-25 2.49964e-25)
(1.66643e-25 6.73562e-25 2.49964e-25)
(-0 -0 -0)
(0 3.07829e-25 0)
(7.44248e-40 6.15659e-25 -6.9365e-34)
(0 5.86708e-25 2.49964e-25)
(-0 1.23132e-24 4.99929e-25)
(-0 3.36781e-25 0)
(3.33286e-25 -0 2.49964e-25)
(-0 2.89513e-26 -1.3873e-33)
(1.4885e-39 1.17342e-24 -0)
(-0 -0 -0)
(-0 2.89513e-26 0)
(0 6.15659e-25 0)
(0 0 2.49964e-25)
(3.33286e-25 -0 -0)
(-0 -0 -0)
(1.66643e-25 2.89513e-26 9.99857e-25)
(0 1.11551e-24 -0)
(-0 0 0)
(0 3.36781e-25 0)
(0 0 0)
(-3.44576e-40 -0 0)
(3.0194e-25 -0 4.5291e-25)
(0 4.75234e-26 2.26455e-25)
(0 -0 9.05821e-25)
(-0 0 2.26455e-25)
(4.5291e-25 0 -0)
(-0 1.58718e-24 4.5291e-25)
(3.0194e-25 2.37617e-26 -0)
(0 0 0)
(0 0 0)
(0 4.75234e-26 2.26455e-25)
(0 0 -0)
(0 4.75234e-26 -0)
(-0 5.52823e-25 -0)
(1.34698e-39 -0 4.5291e-25)
(1.5097e-25 4.81538e-25 4.5291e-25)
(0 -0 0)
(0 5.05299e-25 -0)
(0 0 1.25683e-33)
(1.5097e-25 5.05299e-25 4.5291e-25)
(2.34938e-39 2.76411e-25 0)
(3.0194e-25 -0 0)
(0 0 -0)
(0 -0 -0)
(1.5097e-25 9.15552e-25 1.35873e-24)
(3.0194e-25 2.37617e-26 1.25683e-33)
(1.97348e-39 -0 9.05821e-25)
(-0 2.5265e-25 1.25682e-33)
(1.5097e-25 0 4.5291e-25)
(1.5097e-25 2.76411e-25 0)
(0 4.81538e-25 4.5291e-25)
(0 0 0)
(-0 0 0)
(1.5097e-25 2.37617e-26 4.5291e-25)
(0 2.27385e-24 2.0381e-24)
(0 2.37617e-26 0)
(1.5097e-25 2.76411e-25 -0)
(1.5097e-25 2.37617e-26 -0)
(1.5097e-25 4.81538e-25 -0)
(0 0 -0)
(1.36771e-25 4.14722e-25 0)
(1.54259e-40 2.07361e-25 -0)
(0 3.90046e-26 1.13862e-33)
(1.36771e-25 2.07361e-25 1.23094e-24)
(0 0 1.64126e-24)
(0 -0 0)
(1.36771e-25 1.74924e-24 1.64126e-24)
(3.08519e-40 3.9522e-25 0)
(4.62778e-40 3.90046e-26 4.10314e-25)
(4.62778e-40 -0 1.23094e-24)
(0 3.90046e-26 8.20628e-25)
(1.36771e-25 0 0)
(1.36771e-25 4.14722e-25 2.46189e-24)
(0 0 8.20628e-25)
(2.73543e-25 0 4.10314e-25)
(-0 3.90046e-26 4.10314e-25)
(1.36771e-25 4.14722e-25 1.64126e-24)
(1.36771e-25 0 1.13862e-33)
(0 -0 -0)
(0 -0 4.10314e-25)
(1.36771e-25 1.95023e-26 8.20628e-25)
(1.36771e-25 3.9522e-25 0)
(-0 0 2.46189e-24)
(2.73543e-25 2.26863e-25 0)
(0 0 0)
(2.73543e-25 0 4.10314e-25)
(0 4.53727e-25 0)
(0 -0 8.20628e-25)
(6.17038e-40 8.29444e-25 -0)
(0 1.95023e-26 -0)
(6.17038e-40 3.90046e-26 -0)
(0 -0 0)
(1.20837e-39 2.07361e-25 0)
(2.73543e-25 1.95023e-26 0)
(1.36771e-25 3.75718e-25 2.46189e-24)
(1.36771e-25 1.95023e-26 4.10314e-25)
(0 2.07361e-25 8.20628e-25)
(1.36771e-25 1.95023e-26 4.10314e-25)
(1.20837e-39 -0 0)
(-0 0 4.10314e-25)
(-0 -0 -0)
(2.47816e-25 3.08369e-25 3.71724e-25)
(0 0 7.43448e-25)
(0 0 0)
(-0 3.72394e-25 0)
(0 3.72394e-25 -0)
(4.95632e-25 -0 1.4869e-24)
(1.23908e-25 -0 3.71724e-25)
(2.47816e-25 3.40381e-25 7.43448e-25)
(8.86254e-40 3.20128e-26 0)
(2.47816e-25 3.20128e-26 3.71724e-25)
(0 3.08369e-25 3.71724e-25)
(1.23908e-25 0 1.03153e-33)
(0 3.40381e-25 1.4869e-24)
(-0 0 3.71724e-25)
(1.11517e-24 0 1.4869e-24)
(-0 0 -0)
(1.6459e-39 -0 3.71724e-25)
(2.47816e-25 6.4875e-25 0)
(0 1.60064e-26 0)
(-0 1.60064e-26 7.43448e-25)
(4.95632e-25 0 -0)
(0 3.08369e-25 1.11517e-24)
(1.23908e-25 3.24375e-25 3.71724e-25)
(1.23908e-25 4.04407e-25 3.71724e-25)
(4.95632e-25 6.80763e-25 7.43448e-25)
(4.95632e-25 3.20128e-26 -0)
(2.47816e-25 0 0)
(0 0 -0)
(-0 1.60064e-26 -0)
(0 3.40381e-25 0)
(0 0 -0)
(0 3.08369e-25 3.71724e-25)
(-0 1.70191e-25 3.71724e-25)
(0 3.72394e-25 7.43448e-25)
(-0 3.24375e-25 7.43448e-25)
(1.23908e-25 0 -0)
(1.23908e-25 1.60064e-26 1.4869e-24)
(-0 3.40381e-25 1.11517e-24)
(0 -0 3.71724e-25)
(1.01029e-24 0 6.73527e-25)
(2.24509e-25 0 3.36764e-25)
(-0 -0 6.73527e-25)
(1.12255e-25 0 3.36764e-25)
(0 2.79367e-25 3.36764e-25)
(0 2.79367e-25 -0)
(-0 -0 -0)
(-0 2.79367e-25 0)
(0 0 2.02058e-24)
(0 2.79367e-25 -3.36764e-25)
(4.49018e-25 2.62744e-26 1.34705e-24)
(1.12255e-25 -0 1.01029e-24)
(-0 -0 0)
(0 -0 -0)
(0 5.58733e-25 -0)
(-0 0 2.02058e-24)
(3.36764e-25 2.79367e-25 2.02058e-24)
(6.73527e-25 0 0)
(1.12255e-25 2.62744e-26 0)
(4.49018e-25 1.39683e-25 9.34519e-34)
(0 -0 0)
(2.24509e-25 0 -0)
(2.24509e-25 3.05641e-25 0)
(1.12255e-25 2.79367e-25 -0)
(5.02245e-40 5.58733e-25 -0)
(1.12255e-25 0 0)
(0 2.79367e-25 0)
(0 0 2.02058e-24)
(1.12255e-25 -0 -0)
(-0 1.39683e-25 6.73527e-25)
(0 0 6.73527e-25)
(-0 0 3.36764e-25)
(4.49018e-25 3.05641e-25 2.02058e-24)
(0 0 0)
(4.49018e-25 2.62744e-26 -0)
(1.12255e-25 2.62744e-26 -0)
(1.12255e-25 5.32459e-25 0)
(4.49018e-25 1.39683e-25 6.73527e-25)
(2.24509e-25 2.53092e-25 0)
(0 1.65958e-25 -0)
(-0 0 3.05091e-25)
(9.15273e-25 -0 -0)
(2.03394e-25 6.46938e-26 6.10182e-25)
(8.13576e-25 1.14644e-25 1.83055e-24)
(2.03394e-25 0 0)
(4.06788e-25 0 0)
(1.01697e-25 0 6.10182e-25)
(9.15273e-25 2.07724e-25 -0)
(2.03394e-25 -0 -3.05091e-25)
(2.03394e-25 -0 0)
(2.03394e-25 4.37013e-25 8.46627e-34)
(-0 7.20213e-25 0)
(2.03394e-25 1.14644e-25 1.83055e-24)
(0 1.14644e-25 6.10182e-25)
(0 -0 8.46627e-34)
(0 2.50853e-25 0)
(0 0 3.05091e-25)
(-0 2.50853e-25 0)
(2.03394e-25 4.37013e-25 3.05091e-25)
(-0 -0 3.05091e-25)
(2.03394e-25 0 6.10182e-25)
(2.03394e-25 -0 0)
(6.10182e-25 2.15646e-26 1.83055e-24)
(1.81943e-39 -0 2.74582e-24)
(1.81943e-39 0 0)
(2.03394e-25 -0 0)
(4.06788e-25 0 0)
(2.03394e-25 -0 3.05091e-25)
(2.03394e-25 4.37013e-25 8.46626e-34)
(0 0 8.46627e-34)
(2.03394e-25 -0 3.05091e-25)
(1.791e-39 2.29289e-25 1.22036e-24)
(0 2.29289e-25 3.05091e-25)
(2.03394e-25 1.14644e-25 3.05091e-25)
(0 2.15646e-26 6.10182e-25)
(0 4.37013e-25 0)
(0 -0 0)
(2.03394e-25 0 6.10182e-25)
(0 2.50853e-25 -0)
(0 2.29289e-25 8.46626e-34)
(0 1.88188e-25 -0)
(3.6853e-25 1.97047e-25 1.65838e-24)
(0 2.05906e-25 2.76397e-25)
(1.84265e-25 1.79328e-25 -0)
(0 -0 2.76397e-25)
(7.37059e-25 8.85933e-27 0)
(0 3.94094e-25 -0)
(1.10559e-24 0 -0)
(3.6853e-25 1.97047e-25 0)
(0 1.88188e-25 -0)
(1.84265e-25 9.40939e-26 5.52794e-25)
(-0 1.88188e-25 5.52794e-25)
(8.39976e-40 0 -0)
(1.65662e-39 -0 0)
(0 4.42966e-27 -0)
(3.6853e-25 1.88188e-25 -0)
(-0 4.42966e-27 2.76397e-25)
(1.84265e-25 1.88188e-25 2.76397e-25)
(-0 8.85933e-27 5.52794e-25)
(0 0 -0)
(1.84265e-25 1.02953e-25 -0)
(3.6853e-25 9.85236e-26 8.29192e-25)
(1.63329e-39 1.88188e-25 0)
(1.84265e-25 1.88188e-25 2.76397e-25)
(0 0 0)
(0 1.88188e-25 5.52794e-25)
(1.84265e-25 -0 5.52794e-25)
(3.6853e-25 9.85236e-26 2.76397e-25)
(1.84265e-25 9.40939e-26 2.76397e-25)
(2.44993e-39 0 2.76397e-25)