/*--------------------------------*- C++ -*----------------------------------*\
| =========                 |                                                 |
| \\      /  F ield         | OpenFOAM: The Open Source CFD Toolbox           |
|  \\    /   O peration     | Version:  5.0                                   |
|   \\  /    A nd           | Web:      www.OpenFOAM.org                      |
|    \\/     M anipulation  |                                                 |
\*---------------------------------------------------------------------------*/
FoamFile
{
    version     2.0;
    format      ascii;
    class       volScalarField;
    location    "50.4676134421789371";
    object      Ttt;
}
// * * * * * * * * * * * * * * * * * * * * * * * * * * * * * * * * * * * * * //

dimensions      [0 0 -1 2 0 0 0];

internalField   nonuniform List<scalar> 
60000
(
0.44972
0.48143
0.233707
-0.0253822
-0.0966777
-0.0182415
-0.00789392
0.0499213
-0.00722086
0.0357478
0.160707
0.266817
0.120573
-0.0387776
-0.0347094
-0.0298836
-0.164921
-0.338896
-0.304331
-0.0472472
0.120481
0.210306
0.0386602
-0.472909
-1.26838
-1.73057
-1.31426
-0.325755
0.530475
0.617194
0.227294
0.115829
0.345917
0.489779
0.491797
0.0545014
-0.076788
-0.0167834
0.0844315
0.27806
-1.2483
-1.12316
-0.446125
0.182347
0.45109
0.353772
-0.00752656
-0.0983942
-0.00547184
-0.216067
-0.855563
-1.25078
-0.835573
0.0171365
0.654706
1.03907
1.46798
1.33259
0.031157
-1.95259
-2.70714
-1.47048
0.398917
2.35607
3.79239
3.98957
2.76546
0.436559
-1.79343
-2.24806
-1.05246
-0.0802866
-0.0301204
-0.583836
-1.33042
-1.13664
0.0269255
0.683692
0.156981
-0.660529
-0.873735
-0.838396
-0.349892
0.141939
0.296066
0.134388
-0.0102346
-0.0687455
0.0061149
-0.147684
-0.497823
-0.741288
-0.457334
0.0158075
0.233485
0.376059
0.645527
0.815199
0.311244
-0.732919
-1.43312
-1.13655
-0.198692
1.21103
2.66214
3.34876
2.67241
0.975832
-0.682416
-1.10218
-0.54343
-0.210381
-0.378583
-0.65591
-0.882788
-0.426155
0.133595
0.168514
-0.149019
-0.572041
-0.160671
-0.17889
-0.0764333
0.0296172
0.0624644
0.0321189
0.00358878
-0.0137425
0.00770326
-0.0154498
-0.082099
-0.158355
-0.115912
-0.00254074
0.0539883
0.092266
0.157669
0.221736
0.0852906
-0.234854
-0.465912
-0.3936
-0.0944796
0.311486
0.67916
0.842112
0.687549
0.287065
-0.170992
-0.305922
-0.114422
0.0387858
0.00472045
-0.0928491
-0.189546
-0.1356
0.0359719
0.0887304
0.0376367
-0.0609261
-0.00580389
-0.00812288
-0.00347955
0.000820357
0.00124098
0.000575261
0.0003532
-0.000262417
-0.000190655
-0.000121128
-0.002526
-0.00673243
-0.00702285
-0.00121409
0.000251965
-0.000347707
0.000761368
0.00758651
-3.15615e-05
-0.0257046
-0.0291969
-0.0272744
-0.00064853
-0.00523749
0.0024044
0.0140553
0.0151054
0.004017
-0.033555
-0.0492338
-0.0191891
0.00128868
0.00216888
-0.00182552
-0.00889831
-0.0118304
-0.00046033
0.00417874
0.00256362
-0.000338847
4.71761e-05
6.26236e-05
6.21113e-05
-6.01668e-05
1.87013e-05
6.15948e-05
8.59011e-05
0.000231706
0.000167328
-2.64944e-05
-0.000196726
6.69337e-05
-0.000536321
-0.00103596
0.000646654
0.00212517
0.000939359
-0.00105667
-0.00469147
-0.0141307
0.00462753
-0.00494522
-0.00516509
-0.00434821
0.00118674
0.000721568
0.000292309
-1.57082e-05
-0.00215206
-0.0079818
-0.00282839
-7.74523e-06
-0.000397855
-0.000220603
0.000600436
0.000257381
8.49867e-05
5.78616e-06
-6.68695e-05
9.64414e-05
3.0634e-05
-2.9266e-06
-6.02681e-05
-2.33834e-05
6.58634e-05
8.10405e-05
4.25134e-05
6.16414e-05
0.000125828
6.16984e-06
-1.09938e-05
-2.79557e-05
-3.03823e-05
-0.000728057
0.000302817
0.00165012
0.00172715
-0.000288822
-0.00290016
-0.0122825
-0.00272224
-0.00129039
-0.00779489
0.00712945
0.00777031
0.00129358
9.9148e-05
6.30129e-05
8.55192e-06
-0.00116897
-0.00132917
-8.05189e-07
-0.000100681
-0.000180388
-0.000108206
0.000180793
4.741e-05
4.45507e-05
0.000148051
7.78783e-05
8.12868e-06
-4.28221e-07
-1.25255e-05
-9.90843e-06
6.57294e-06
1.49418e-05
1.0666e-05
6.61478e-06
2.77753e-05
7.92266e-06
-3.8915e-06
-1.88914e-05
-2.39555e-05
-0.000145427
-4.09939e-05
0.000339355
0.000697629
0.000308531
-0.000850156
-0.00742237
-0.00791875
0.0010831
-0.00403644
0.00626892
0.00329385
0.000337483
-5.77777e-06
-1.04227e-06
-2.53252e-05
2.83053e-06
-0.000188241
-0.000112187
6.16081e-07
-4.84471e-05
-7.06609e-05
-2.0708e-05
-2.15972e-07
-7.4684e-07
3.79104e-05
3.16483e-05
1.40761e-06
4.63788e-07
-3.46219e-07
-8.79746e-07
-1.83046e-07
3.0733e-07
1.90328e-07
2.32115e-07
2.15037e-06
3.8319e-06
-2.68863e-06
-3.61229e-06
-1.41768e-05
-2.77845e-05
-1.6755e-05
2.57345e-05
8.24866e-05
0.000271541
-7.69929e-05
-0.00253679
-0.00583164
0.000322354
-0.00178171
0.00241323
0.000887273
6.75834e-05
5.09523e-06
1.09302e-07
-1.58237e-07
-2.33261e-06
1.45238e-07
-9.84361e-06
-9.92416e-06
-8.09308e-08
-7.81755e-06
-6.87601e-06
-1.14967e-06
-1.75871e-06
2.43652e-06
2.90413e-06
3.51637e-09
5.44686e-08
1.27861e-07
7.34832e-09
-2.98223e-09
6.93358e-10
-4.07317e-09
4.71332e-09
4.397e-08
4.26066e-07
-3.84243e-07
-1.40515e-06
-3.11396e-06
-6.50519e-06
-2.55658e-06
1.66401e-06
1.80862e-07
6.05711e-05
2.47019e-05
-0.000401401
-0.00227858
-6.69463e-05
-0.000583176
0.000643785
0.000237918
1.27492e-05
7.99775e-08
1.88995e-08
-1.84289e-08
-1.81891e-08
-6.94967e-08
7.07505e-09
-2.53274e-07
-8.09386e-07
-8.17876e-09
-4.60256e-07
-2.7424e-07
-1.51667e-07
5.07651e-08
1.3556e-07
-1.0699e-08
1.53921e-09
8.77392e-09
8.62608e-09
1.32367e-08
6.56159e-11
6.68731e-10
-9.96755e-12
3.03523e-09
2.18709e-08
-6.84561e-09
-4.67023e-07
-3.4886e-07
-7.53573e-07
9.9593e-09
4.25171e-07
1.1057e-06
1.72776e-06
9.64908e-06
-1.91161e-05
-0.000491572
-3.45338e-05
-0.000121423
0.000127653
4.21874e-05
2.0662e-06
3.13176e-08
-9.52112e-09
-9.16367e-09
-1.64791e-10
-9.05866e-11
-1.01483e-10
-5.32728e-09
-2.30443e-09
-3.11114e-08
-3.07723e-10
-1.65457e-08
-8.067e-09
-1.55861e-08
4.98575e-09
-6.54286e-11
-1.23216e-08
-8.4822e-11
3.57264e-10
3.09739e-11
1.12882e-12
2.12255e-12
-8.27889e-12
4.51959e-12
-8.13042e-11
-1.08252e-08
-4.9256e-08
-2.60551e-08
-7.42526e-08
7.01253e-08
1.72122e-07
5.23639e-08
1.31852e-07
6.61269e-07
-1.39585e-07
-4.95337e-05
-6.9916e-06
-1.56965e-05
1.59812e-05
3.94472e-06
1.40381e-07
2.43172e-08
-3.08521e-12
-4.32575e-13
-5.61317e-13
-1.49403e-13
4.49745e-14
-6.03943e-14
-1.32973e-12
-7.959e-13
1.78955e-13
-4.85244e-13
-2.91439e-11
-4.34005e-11
-2.31024e-10
-1.72014e-11
-2.28884e-11
1.39827e-12
1.54421e-12
1.49654e-14
7.13004e-17
4.47554e-17
-2.68017e-15
-2.28223e-14
-2.49715e-12
-5.38477e-11
-2.52876e-08
-5.38894e-10
-1.896e-08
9.95267e-09
3.59086e-08
3.10935e-10
5.6911e-09
1.98524e-08
-1.64817e-08
-1.92185e-06
-9.54403e-07
-1.11368e-06
9.78619e-07
3.15568e-07
5.93156e-08
1.99125e-11
6.17037e-16
-7.204e-17
-1.84604e-17
7.16832e-18
9.87717e-18
9.30478e-19
-3.27457e-17
-6.43012e-18
-1.76923e-17
-3.7087e-16
-7.64567e-14
-8.61754e-15
-9.19986e-13
-9.72002e-16
-4.22236e-15
-4.02386e-16
3.62686e-16
3.11874e-18
7.62904e-21
-4.0378e-22
-1.52e-19
-4.21584e-17
-2.84347e-14
-2.54441e-11
-9.62501e-11
-1.17624e-10
-1.61017e-10
4.37629e-11
3.03948e-12
4.17506e-11
6.70093e-11
7.70896e-11
-2.3084e-09
-4.49184e-08
-8.15864e-08
-4.54988e-08
2.22073e-08
4.57137e-08
5.28026e-11
2.43881e-14
-7.0423e-18
-2.76563e-20
1.01787e-22
2.24985e-22
3.64596e-22
5.74335e-23
-5.05001e-22
2.28793e-23
-8.62536e-23
-5.12796e-21
-3.51441e-19
-5.62592e-19
-2.04626e-17
-2.015e-20
-3.32116e-19
-3.23451e-19
2.60661e-20
3.35863e-22
1.06119e-24
5.27046e-26
4.61695e-24
5.48988e-22
-1.32145e-20
-7.95642e-17
-1.39681e-13
-2.61805e-12
-1.58612e-12
8.11088e-15
4.08297e-16
3.76129e-17
7.67377e-14
9.40405e-13
2.61238e-13
-2.43568e-12
-1.3555e-12
-4.60892e-11
8.69386e-12
5.22478e-13
4.86769e-16
4.07919e-20
-1.47559e-23
-3.46717e-25
8.21843e-27
1.35601e-27
4.97332e-27
4.02878e-28
-5.46095e-27
1.53721e-27
-1.2357e-27
-9.44563e-27
-2.93843e-25
-1.10412e-23
-5.48112e-22
-3.52247e-25
-6.56605e-24
-1.86579e-23
1.02665e-24
1.59191e-26
1.12264e-28
-1.14264e-29
-2.38316e-29
1.86472e-26
1.1209e-24
-3.6255e-22
-1.17727e-18
-1.28073e-16
-3.07698e-16
-1.04733e-18
7.81302e-20
3.44402e-21
1.10681e-19
3.54284e-17
1.61791e-17
-5.5569e-17
-4.25981e-18
-5.52192e-16
3.32259e-17
5.92853e-18
1.58219e-20
1.83825e-23
1.41326e-26
1.65121e-29
1.42078e-29
4.26043e-29
9.98678e-30
5.84802e-29
3.66589e-29
-5.61647e-29
5.42754e-29
-4.13025e-29
2.35583e-29
1.84044e-28
-8.66723e-27
-1.07538e-29
3.3601e-30
-4.44942e-29
1.75297e-30
-1.92203e-29
-1.10946e-29
-6.11848e-30
1.91511e-29
1.88436e-30
-1.03939e-29
-1.61077e-28
-5.35515e-24
-2.37831e-21
-3.87642e-20
-5.75841e-22
2.27562e-23
3.2183e-25
1.90263e-24
4.94005e-22
-4.25004e-22
-9.21308e-22
-2.57082e-23
-7.28213e-21
-1.15021e-21
2.11653e-22
1.50275e-24
3.25947e-27
2.18385e-29
6.07818e-29
3.42311e-29
3.84874e-29
1.16675e-29
6.4865e-29
-3.62083e-29
-7.67047e-29
4.55205e-29
7.67382e-29
-8.0248e-29
-1.3789e-29
2.13689e-29
-5.78058e-30
3.7865e-29
-1.20874e-29
-4.45394e-29
-1.04324e-29
4.70795e-29
-2.26902e-29
-2.05476e-29
-2.97815e-29
-6.24528e-30
9.82784e-30
2.75477e-29
-1.08721e-26
-2.68784e-24
-5.73302e-26
4.99896e-27
-1.35458e-29
-5.11235e-29
3.31969e-27
-1.34417e-26
-5.64338e-27
-1.07241e-27
-1.27773e-25
2.61095e-26
1.74815e-26
3.39186e-28
-1.42443e-29
6.13932e-30
1.30656e-29
-1.09064e-29
-7.91842e-31
9.38901e-30
1.84555e-29
-1.22303e-29
4.44448e-29
1.93021e-28
-2.21727e-29
-2.8134e-29
1.25278e-29
5.40448e-30
1.5004e-29
-3.36997e-30
-6.73096e-30
-5.22e-30
-1.61991e-29
6.0369e-30
-2.38297e-29
-7.64551e-30
-8.36215e-30
2.43451e-30
4.93192e-29
3.75225e-29
-1.58791e-29
-2.30731e-28
-2.38733e-29
1.59e-29
1.14753e-28
1.41397e-29
2.76429e-29
-2.81404e-31
3.59167e-30
-4.63529e-30
1.46999e-30
-4.21358e-30
-1.28294e-29
-5.86352e-29
-9.40334e-30
6.17617e-29
4.77765e-30
-1.22795e-29
2.67291e-29
3.63651e-29
-1.93536e-29
-2.99532e-29
4.41663e-29
7.15952e-29
-2.59323e-29
-2.98538e-29
-2.38872e-30
-8.68894e-30
8.40661e-30
4.58941e-29
5.63145e-30
-2.28343e-29
-1.29595e-29
-4.65547e-29
2.99074e-29
7.69535e-30
3.74279e-29
2.10333e-29
-2.88856e-29
6.21685e-30
1.97721e-29
-4.64445e-30
2.9208e-29
-1.12253e-29
-1.0806e-29
1.43583e-30
2.87456e-29
-3.56487e-30
-2.54227e-29
-1.64966e-29
1.66346e-29
4.17346e-30
-2.85285e-30
-6.03068e-30
8.87018e-30
-5.91991e-32
1.25034e-29
-7.55862e-29
-6.17591e-30
2.02245e-29
-3.54177e-30
-7.0324e-29
-1.0223e-28
-1.63231e-30
-5.34244e-29
-2.75978e-29
-3.13854e-29
-9.06651e-30
-2.74043e-29
1.09385e-29
-4.45297e-29
3.10228e-29
2.81966e-29
2.4298e-30
-2.80784e-30
-1.39371e-29
-3.0899e-30
3.95973e-29
-4.37357e-29
-4.11403e-29
-1.01458e-29
-7.10692e-30
2.2718e-29
1.11716e-30
-1.46432e-29
-4.59223e-30
1.05417e-30
1.51056e-29
1.71229e-29
1.45964e-29
-9.18152e-31
-7.96515e-30
-1.57976e-29
-3.53398e-30
2.04668e-29
2.27058e-29
5.24217e-29
1.75721e-31
-2.97609e-29
1.11568e-30
2.37698e-29
-8.06201e-29
-8.7179e-30
3.25558e-29
1.28172e-29
-1.91297e-29
-1.10373e-29
5.768e-30
4.6071e-30
-2.61923e-29
-2.96874e-29
8.9762e-30
-9.83652e-30
6.60065e-29
-1.51e-30
-2.93146e-30
-2.36613e-29
-1.70312e-29
9.79232e-31
3.02856e-29
-1.42281e-29
1.91877e-29
1.46738e-29
1.61859e-29
1.70647e-30
6.37966e-31
-2.68103e-29
4.82458e-29
5.9865e-31
4.08909e-30
1.00365e-29
1.50676e-29
-1.76579e-30
5.658e-30
1.4924e-30
8.09224e-30
1.80206e-30
5.62397e-29
-2.58023e-30
-4.6262e-30
6.19824e-29
-2.52388e-29
-2.02447e-29
2.89175e-29
6.76808e-30
1.45211e-29
4.76749e-29
-3.59797e-30
-4.41232e-30
-6.05899e-30
3.28718e-30
7.95573e-30
-8.53453e-30
-5.55923e-30
5.14842e-30
3.81867e-29
2.05034e-30
-5.95749e-29
-2.67274e-29
-1.37201e-29
-1.36507e-29
3.34245e-30
-4.22048e-29
1.14259e-29
2.48098e-29
3.08022e-30
8.94596e-30
1.14367e-29
-7.07052e-30
-1.62541e-29
-5.06526e-30
-5.71372e-29
-9.69895e-31
2.81821e-29
-2.12451e-29
3.62275e-29
-7.6512e-31
6.7327e-31
2.24072e-30
6.83654e-30
-3.11395e-29
-4.18285e-30
-2.52188e-29
-3.95046e-30
-2.91401e-30
-1.04779e-29
-5.29185e-30
-4.95011e-30
5.04822e-30
-6.00944e-32
-6.18708e-30
1.31922e-29
1.12175e-30
-1.3775e-29
-7.15048e-29
1.34297e-29
7.35883e-29
5.18968e-29
-2.71243e-29
-3.96834e-29
-2.64975e-29
-3.39342e-29
4.61881e-30
-1.5428e-29
2.51091e-30
-1.23593e-29
3.5558e-30
4.43972e-30
4.90417e-29
-2.52404e-29
3.25151e-29
1.58964e-29
-1.51396e-29
2.43245e-29
4.01231e-30
-6.49016e-30
-4.78985e-30
-1.28757e-29
-1.99779e-29
1.63635e-30
-2.88553e-29
3.95146e-29
6.20876e-30
-7.22239e-30
-9.66225e-30
-6.10986e-30
9.19579e-30
1.28142e-29
8.77955e-31
-2.3546e-30
-1.78553e-30
1.28562e-29
5.15229e-30
-3.74818e-29
4.35953e-30
3.34388e-29
-4.67792e-29
2.70565e-29
7.40161e-29
-1.42324e-29
-4.58008e-30
7.9956e-31
9.81974e-30
-1.71105e-29
8.9163e-30
-5.72449e-32
-2.91924e-30
3.73414e-30
2.63404e-29
3.71166e-30
-2.87588e-29
-9.09047e-30
4.44325e-31
-1.57188e-29
1.7854e-29
2.85388e-30
1.24479e-29
-1.30392e-29
-3.99489e-29
1.31478e-29
4.04265e-29
-7.82327e-30
2.38457e-29
-6.55622e-30
-1.60065e-29
-1.69319e-29
7.51106e-30
-1.56844e-29
-0.0199867
0.00113194
0.00689796
-0.0285795
-0.0777402
-0.107958
-0.111706
-0.118168
-0.0627764
-0.0930897
-0.11464
-0.222835
-0.36616
-0.436141
-0.506758
-0.656198
-0.756574
-0.661219
-0.344356
0.105057
0.219129
0.00164977
-0.128077
0.0480902
0.0309548
0.042451
0.258743
0.487897
0.258611
-0.261269
-0.636496
-0.659661
-0.424358
0.102314
0.309592
0.110668
0.0966188
0.180339
0.0279569
-0.028634
-0.918176
-0.71991
-0.189609
0.491461
1.01737
1.04767
0.582144
-0.0383185
-0.391459
-0.457286
-0.232423
0.294966
1.04307
1.75496
2.32552
2.77366
3.0237
2.86857
1.73285
-0.678466
-2.60942
-2.26394
-0.627619
0.567457
1.37998
1.41433
0.50639
-0.530789
-0.683061
0.278207
1.48502
1.69252
0.682749
-0.619961
-2.08028
-2.0306
0.0690433
0.817239
-0.297564
-0.846601
-0.369196
-0.380959
-0.19167
0.126092
0.384773
0.493731
0.417397
0.247564
0.0341791
-0.0606499
-0.0428568
0.209434
0.586419
0.905695
1.20159
1.56759
1.87599
1.91579
1.43062
0.133969
-0.999258
-0.996708
-0.417924
-0.0589842
0.469797
0.706604
0.22072
-0.435298
-0.367826
0.3933
1.12905
1.25681
0.806852
-0.028309
-0.660295
-0.306079
0.4072
0.257615
-0.107557
-0.28286
-0.0594168
-0.0653174
-0.0326933
0.024807
0.0724049
0.101604
0.0896374
0.0425436
-0.0279516
-0.0513201
-0.0488178
0.00711709
0.0903557
0.164209
0.242182
0.346438
0.441886
0.480282
0.410076
0.0925037
-0.32783
-0.372931
-0.151695
-0.00342603
0.171499
0.285571
0.165917
-0.0502507
-0.0475126
0.180754
0.388303
0.425235
0.308504
0.0839955
-0.146105
-0.168543
0.0103509
0.0358379
-0.0180108
-0.0403157
-0.000888734
-0.00080923
-0.000211595
0.000133705
0.000126576
0.000653313
0.00197394
0.00110554
-0.0024146
-0.00321006
-0.00205371
0.000191878
0.00144781
0.00117722
0.00213505
0.00531658
0.00840255
0.00931143
0.0135593
0.000305931
-0.0549134
-0.0460057
-0.0136654
-0.00656654
-3.29685e-05
0.0109875
0.0111726
-0.00729312
-0.00969748
0.00987674
0.0201839
0.0189833
0.0120516
0.000423418
-0.0164505
-0.0237592
-0.00566362
0.00130417
-0.000202626
-0.000569231
0.000131397
-0.000245189
-0.000544669
0.00034622
0.00121611
0.00094593
0.000205168
3.03983e-05
-0.000402453
-8.77137e-05
-4.69149e-05
0.000333353
0.000780481
0.000670246
0.000828854
0.000863086
0.000730453
0.000283198
0.000660764
0.00289579
-0.0143736
-0.00710811
-0.00582833
-0.0121205
-0.00193298
-0.00117526
-0.000425318
-0.000322681
-0.00114646
5.13297e-05
0.000212812
-1.24977e-05
4.0234e-05
0.000135788
2.75439e-07
-0.00159243
-0.000477776
-0.000403818
-0.000105431
0.000416698
7.13775e-05
-0.00023542
-0.00059112
0.000173543
0.000819628
0.000653681
0.000228443
-2.07098e-06
-0.000193099
-9.09317e-05
-8.93174e-05
-0.000235522
0.000338984
0.000811926
0.000928218
0.000621385
0.000328914
0.000235869
0.00042965
0.00115294
-0.00469051
-0.00591761
-0.00422226
-0.00798655
0.00207522
0.00131975
1.3953e-05
2.18296e-07
-0.000142963
-5.39535e-05
1.62893e-05
2.71838e-05
1.81661e-05
-1.8412e-05
-1.59046e-05
-0.000152265
-0.000105444
-0.00014646
-9.70813e-06
0.0002024
1.57728e-05
-6.51351e-05
-0.000228659
-4.12929e-06
0.000209608
0.000163332
8.01197e-05
1.29689e-05
-5.23798e-05
-0.00011065
1.91722e-05
-0.000159577
2.9606e-05
0.000294934
0.000351997
0.000184652
1.96046e-05
0.00011033
0.000124246
-1.24619e-05
-0.000947923
-0.00441236
-0.00199509
-0.00270199
0.00116145
0.000498392
2.56933e-05
2.30708e-06
-3.67367e-06
-2.85659e-06
2.40833e-06
6.4423e-07
8.45267e-07
-6.8508e-07
-4.44106e-05
-1.11739e-05
-0.000111783
-2.82042e-06
1.47465e-05
6.53307e-05
2.24759e-06
-1.32596e-05
-4.92447e-05
-1.12103e-05
3.34503e-05
2.43414e-05
1.63502e-05
6.58436e-06
-6.35227e-06
-3.66406e-05
-3.19555e-06
-2.65763e-05
-2.22971e-05
8.19617e-05
0.000103341
4.96379e-05
-1.36526e-06
3.39549e-05
7.88273e-06
-3.52976e-05
-0.000277385
-0.00179227
-0.000616948
-0.000619784
0.000312608
0.000101605
5.24126e-06
1.54581e-07
-1.20855e-07
-3.37436e-08
3.19138e-08
3.57251e-08
-2.02394e-08
-2.44711e-06
-3.63354e-06
-3.44778e-06
-2.58592e-05
-4.74473e-06
7.07711e-08
1.52726e-05
3.55651e-07
-2.29331e-06
-6.75858e-06
-1.20212e-06
4.14448e-06
2.57839e-06
1.86923e-06
7.50379e-07
-1.89136e-07
-6.69313e-06
-5.33257e-06
-6.21044e-07
-9.89096e-06
1.58107e-05
2.24579e-05
1.2082e-05
1.87759e-06
6.42175e-06
1.94683e-07
1.63816e-07
-6.95381e-05
-0.000494524
-0.000115235
-0.00010409
7.49512e-05
1.92606e-05
8.60454e-07
-2.62383e-08
-3.81939e-08
-1.06303e-08
4.81794e-11
3.86562e-09
-1.21872e-08
-1.31522e-07
-3.02202e-08
-1.18756e-06
-9.97973e-07
-2.57484e-06
8.3985e-08
1.13399e-06
1.44334e-08
-1.86809e-07
-6.68645e-07
5.05595e-08
3.98151e-07
1.25634e-07
7.49801e-08
4.49586e-08
-1.56137e-08
-6.70829e-07
-1.20612e-06
-1.06511e-07
-1.75433e-06
2.24973e-06
2.71632e-06
1.28456e-06
4.93797e-07
7.99456e-07
5.37108e-07
5.59621e-08
-5.93364e-06
-9.51095e-05
-1.29792e-05
-1.33985e-05
1.42389e-05
3.24592e-06
2.06583e-07
8.14997e-09
-7.9111e-09
-3.20476e-11
1.09614e-11
6.56027e-11
-2.38676e-11
6.73392e-11
-1.69479e-08
-4.70664e-08
-9.37469e-10
-2.71672e-07
-1.1804e-08
-4.11865e-08
-4.90705e-08
-4.45272e-08
1.00737e-08
5.57458e-08
2.25461e-08
2.32039e-09
1.07407e-08
6.76177e-11
-2.44853e-08
-5.33024e-08
-1.14321e-07
-1.30247e-08
-1.48405e-07
1.64655e-07
1.60957e-07
5.92212e-08
6.16225e-08
5.51193e-09
4.90962e-08
-3.82296e-08
-1.64126e-07
-1.1061e-05
-1.18447e-06
-1.36677e-06
1.69946e-06
4.17099e-07
4.89221e-08
1.3594e-11
-1.11925e-13
2.71239e-15
5.41744e-15
3.29931e-13
-7.42959e-14
-1.03386e-11
-2.30946e-10
-6.52709e-11
-2.31131e-08
-2.18122e-09
-1.21171e-08
-1.36642e-08
-9.58589e-11
-7.87325e-09
6.78499e-09
1.30248e-09
2.37424e-10
1.23961e-11
6.53534e-13
7.71937e-13
-5.71866e-11
-3.28115e-11
-1.30875e-08
-1.86478e-10
-2.20542e-09
1.05992e-08
2.57754e-08
7.46234e-11
3.65269e-10
1.06726e-10
3.18165e-08
5.9299e-09
-3.39086e-09
-6.85813e-07
-5.25844e-08
-1.09052e-07
1.58622e-07
7.20556e-08
1.84258e-10
1.05537e-13
-5.71012e-17
-2.81044e-19
9.92312e-19
3.29303e-17
2.26085e-17
-1.53794e-15
-2.68912e-14
-5.84082e-13
-2.03703e-14
-3.77926e-13
-2.47665e-11
-1.50268e-10
-1.57881e-11
-2.80635e-11
2.5424e-11
6.9551e-12
7.0806e-14
6.15981e-16
5.68947e-17
9.3785e-16
-9.46169e-14
-2.01523e-13
-1.46155e-14
-1.34666e-11
-7.00851e-11
1.01205e-11
1.66155e-12
1.77023e-13
1.45326e-14
1.30115e-12
2.63868e-12
-3.42363e-13
-8.17183e-11
-7.05973e-08
-3.95466e-10
-1.44355e-09
3.0653e-08
2.35511e-10
2.95908e-13
2.02943e-16
1.46675e-19
5.51597e-22
1.15561e-22
1.9797e-21
1.14911e-20
-1.18119e-19
-1.31494e-18
-6.35559e-18
-4.74237e-20
-6.12008e-18
-2.1732e-15
-5.95589e-13
-9.10197e-16
-4.70522e-15
5.78207e-15
1.31471e-15
1.01241e-17
1.97361e-20
2.6525e-21
1.05287e-19
1.912e-18
-3.20242e-18
-4.42849e-19
-1.50096e-16
-9.41227e-15
7.67604e-17
1.33287e-16
2.96174e-18
1.90839e-18
1.79561e-16
7.31573e-16
-3.31033e-15
-2.42428e-12
-8.47473e-13
-1.91676e-11
-1.27391e-11
6.50891e-12
3.45776e-14
4.42095e-17
3.05739e-20
1.91136e-23
2.02861e-26
2.37986e-27
4.98991e-26
1.49248e-24
-4.6276e-24
-3.61359e-23
-4.39907e-23
-1.67608e-23
-1.48589e-21
-7.52446e-20
-9.82367e-18
-1.67904e-20
-2.39459e-19
8.29497e-19
1.01391e-19
4.84184e-22
3.28523e-25
5.30364e-26
-4.94716e-25
6.74435e-23
-1.88495e-23
-8.84796e-24
-2.48227e-22
-7.18635e-19
-1.4322e-19
1.29351e-20
1.46664e-22
4.21191e-23
8.25517e-21
8.0339e-20
-3.12295e-19
-1.07333e-16
-1.19126e-18
-4.24056e-16
-1.54947e-15
2.76197e-16
2.56434e-18
6.26251e-21
9.10603e-24
1.16149e-26
6.00622e-29
7.39959e-29
-6.06093e-30
3.08208e-29
-9.23555e-29
-6.66548e-28
-2.59854e-28
-2.9118e-28
-7.1473e-26
-3.83937e-24
-1.80562e-22
-1.68526e-25
-5.495e-24
3.8327e-23
2.31599e-24
6.63516e-27
-1.3425e-30
-1.6104e-29
-8.78961e-29
-4.07799e-28
-3.72529e-28
2.25042e-29
-1.10948e-25
-3.37447e-23
-2.80904e-23
1.19722e-24
1.61983e-26
5.03827e-29
4.89569e-26
2.22014e-24
-1.59289e-24
-1.21946e-21
-1.2014e-23
-6.00025e-21
-1.04186e-19
1.75478e-20
3.11683e-22
1.33644e-24
1.86135e-27
1.28284e-30
-1.64242e-29
-1.08148e-29
-4.17338e-29
-3.81614e-29
-7.14013e-29
5.70906e-29
1.20783e-28
-8.43162e-29
-5.14864e-29
-1.64789e-28
-5.22663e-27
1.96213e-29
1.58015e-29
6.75714e-28
3.12703e-29
-1.96402e-29
1.12108e-30
1.1611e-29
3.22341e-29
-2.03031e-29
-1.05067e-29
-1.21082e-28
-2.74913e-29
-1.48797e-27
-2.96285e-27
1.37087e-28
2.803e-29
1.29021e-29
-1.37879e-29
-2.09745e-29
2.27597e-30
-1.63734e-27
-6.67566e-28
-4.17265e-26
-1.38786e-24
1.93218e-24
3.78858e-26
1.71618e-28
-6.93267e-30
2.95154e-30
1.49821e-29
-2.63483e-30
-3.7257e-29
6.25082e-30
-1.0957e-29
3.34683e-29
3.18688e-29
-8.18984e-29
2.9165e-30
-3.30397e-29
-2.76496e-29
-1.84005e-30
-2.83825e-30
8.72516e-31
-1.05086e-29
2.35827e-29
1.05386e-29
3.10967e-29
-2.65386e-30
-2.37592e-29
-7.13457e-29
2.95464e-29
-1.02368e-28
-4.73944e-29
2.33607e-29
3.27532e-30
-2.00467e-30
2.24745e-29
1.29565e-29
1.34462e-30
-1.24609e-29
-3.19264e-30
1.61333e-29
4.53525e-30
2.80478e-28
1.62884e-28
-1.47435e-29
1.75661e-29
-1.35562e-29
2.17055e-30
-5.27115e-30
-1.83293e-29
6.81602e-31
-2.35403e-29
3.73321e-29
1.50479e-28
-1.08622e-28
-8.67665e-29
2.71381e-30
-1.83432e-29
1.34534e-29
-5.28449e-31
1.69638e-29
1.75725e-29
-2.30044e-29
-2.12627e-30
-9.02564e-29
-2.19396e-29
5.23915e-29
-9.72625e-30
3.50352e-29
-1.97616e-29
6.8681e-30
-1.03624e-29
8.51382e-30
-8.18638e-30
-2.6806e-29
-2.00847e-29
9.88161e-30
1.69191e-29
7.35217e-31
2.14589e-29
-3.66917e-31
1.27825e-30
-6.0164e-30
-5.70014e-30
-1.02308e-29
1.17746e-30
-3.49722e-29
1.18969e-29
-9.07781e-30
1.78399e-29
-4.96574e-29
-7.48231e-29
-9.04958e-29
9.2021e-30
8.9629e-29
-7.11438e-30
-5.38637e-29
1.38353e-29
1.37666e-29
2.69796e-30
-3.34755e-29
2.85568e-29
-1.74533e-29
-3.74573e-29
-2.65478e-29
-2.8263e-29
4.04274e-30
4.76573e-30
3.90888e-29
-2.06015e-29
-1.02982e-29
1.23592e-29
5.14481e-29
-2.63731e-29
-9.16903e-30
1.57149e-29
4.91171e-31
-3.99965e-30
4.20656e-30
5.38137e-30
-9.47732e-30
-1.6571e-29
-6.20186e-30
1.13762e-29
-2.25741e-29
-1.14704e-29
-3.67127e-29
-1.53318e-29
-1.03712e-29
-1.99466e-29
2.26244e-29
-3.90021e-29
-2.38038e-29
-3.35896e-29
3.46272e-29
-4.77979e-30
2.30425e-29
4.61331e-29
-6.83657e-30
9.90168e-30
1.15647e-29
-1.31014e-30
1.27074e-29
1.53694e-29
8.64037e-29
2.57494e-29
-1.1795e-29
-2.42901e-29
-3.46982e-29
5.48007e-30
3.14282e-31
5.74009e-30
-7.08208e-31
-8.01487e-30
3.04859e-29
3.40643e-29
-5.67881e-29
8.88799e-31
-4.63137e-31
-4.82626e-30
1.31429e-29
-8.22277e-30
-2.3828e-29
1.75007e-29
1.64336e-29
-1.302e-30
-1.20442e-29
-2.73837e-29
2.02265e-29
-7.00043e-30
4.63423e-30
2.08158e-29
-3.51966e-29
2.68044e-29
1.97407e-30
-2.80863e-30
-1.98763e-31
9.10035e-30
1.00865e-28
1.45316e-29
-1.09375e-29
-1.3973e-29
1.08877e-29
9.71379e-30
1.18858e-29
4.81338e-30
8.59386e-31
1.94553e-29
1.16759e-30
-1.68082e-29
-1.99758e-29
1.86164e-29
4.16905e-30
1.00822e-29
-4.74475e-30
8.69341e-30
2.52415e-29
-1.13172e-29
-5.82932e-30
-1.50164e-29
4.52252e-30
1.47311e-29
9.08227e-31
-1.70296e-29
3.3254e-29
4.05722e-29
3.94648e-29
-1.84458e-29
3.03872e-29
2.22993e-29
-3.99088e-29
3.84397e-29
-5.72297e-29
1.21192e-29
-2.6972e-30
-4.00892e-30
1.37408e-29
1.18247e-29
-6.69315e-30
-9.0408e-30
8.03098e-30
-5.45949e-30
1.19609e-30
-3.05256e-30
8.66385e-30
2.6511e-29
-4.93893e-30
-3.19558e-30
1.79187e-29
2.33267e-30
-7.45302e-30
1.12927e-29
1.2267e-29
1.99102e-30
6.55809e-31
-2.26791e-30
4.77139e-30
-9.78853e-30
1.52553e-30
-1.31861e-30
1.26219e-29
9.61502e-30
2.61189e-29
-6.77788e-29
8.30103e-30
-9.65037e-30
3.69086e-29
5.50185e-29
3.87939e-29
1.77157e-30
2.72847e-30
-5.81722e-29
2.43306e-29
-4.22845e-30
-6.4327e-30
3.72927e-30
2.46231e-29
5.03488e-30
-1.08023e-29
-4.80015e-31
-1.01106e-29
-6.8009e-30
-3.68986e-29
4.53357e-30
1.21811e-29
-3.19506e-29
2.32091e-29
5.77657e-30
3.39407e-29
-1.56854e-29
-1.55011e-29
2.39439e-30
-2.12642e-30
1.30133e-29
4.26334e-31
-1.40256e-30
3.74748e-30
-3.33781e-30
1.41307e-30
9.66194e-30
6.91925e-30
-1.64366e-29
1.64929e-29
8.65586e-30
-1.44494e-30
-4.31577e-30
-6.49784e-30
-3.0446e-29
1.78027e-29
-4.93243e-30
3.91684e-30
2.2104e-29
1.98875e-29
4.74161e-29
2.6972e-29
-1.33688e-29
1.33677e-29
5.10731e-29
8.83291e-30
0.122637
0.154558
-0.0477524
-0.187584
-0.207149
-0.136061
-0.0615823
0.0671794
0.109387
-0.0163368
-0.163215
-0.202706
-0.182491
-0.207657
-0.475484
-0.679578
-0.771696
-0.858296
-1.00638
-0.603257
0.577443
0.833882
0.337627
0.264605
0.399825
0.514824
0.445207
0.214839
-0.149428
-0.466865
-0.655619
-0.6048
-0.333821
0.0308606
0.246131
0.178089
0.0263986
-0.0543946
-0.127235
-0.0573948
-1.66691
-1.58285
-0.756974
0.100044
0.474026
0.418975
0.217195
-0.0477182
-0.184763
-0.0190089
0.409217
0.860851
1.20527
1.49669
1.77196
1.98475
2.20346
2.53885
2.50892
0.988191
-1.76633
-2.87459
-1.42111
-0.517314
-0.846939
-1.09741
-0.949256
-0.407086
0.514863
1.55526
2.104
1.5685
0.151275
-1.11195
-1.53263
-0.880516
0.374906
0.822555
0.190098
-0.847064
-0.816366
-0.883332
-0.340334
0.183386
0.364073
0.288488
0.143699
-0.0615556
-0.158316
-0.0159863
0.249442
0.445329
0.551946
0.663357
0.99328
1.31487
1.57157
1.87741
2.1502
1.39098
-0.711485
-1.71707
-0.99792
-0.636003
-0.84525
-0.994988
-0.827589
-0.379559
0.322602
1.02707
1.45262
1.3056
0.622309
-0.109374
-0.366801
0.00576004
0.490509
0.541649
0.289774
-0.234211
-0.134701
-0.162171
-0.0678502
0.0244518
0.0516012
0.0378374
0.0144575
-0.021235
-0.0537186
-0.0456184
0.0008104
0.0568356
0.101698
0.154419
0.246602
0.339338
0.402868
0.473712
0.588983
0.492989
-0.0933222
-0.520213
-0.340368
-0.127988
-0.147443
-0.211517
-0.209666
-0.0991498
0.112427
0.314134
0.426128
0.403903
0.2359
0.0260849
-0.0915787
-0.0518343
0.0630151
0.0991748
0.0461665
-0.0530597
-0.00491644
-0.00347683
0.000204568
0.000147318
6.0547e-05
0.000132743
0.000214273
-0.000151672
-0.00136012
-0.00204026
-0.000804189
0.00155908
0.00256648
0.00335832
0.00568653
0.00893615
0.0113071
0.0125105
0.0178738
0.0244009
-0.0136759
-0.0615758
-0.0392562
-0.00712251
-0.0069299
-0.0080486
-0.0107597
-0.00425618
0.0100678
0.0177232
0.0199077
0.0200308
0.0109127
-0.00460538
-0.013693
-0.00974006
-0.00032635
0.00304834
0.0022664
-0.00278903
-0.000214825
-0.00033129
0.00028873
0.000758373
0.00026356
-0.000172837
-8.4705e-05
-9.57689e-05
-0.000214852
-0.00014639
0.000136221
0.000192887
0.000221564
0.000169202
2.60844e-05
8.04537e-05
0.00020733
0.000193852
-5.04346e-05
0.000810589
-0.00243698
-0.00971521
-0.00580219
-0.00283563
-0.00420083
-2.65564e-05
0.000731906
0.000516249
-9.47535e-05
-0.000427671
-0.000255688
-0.000161382
0.000128326
-0.000171419
-0.000530669
-0.000322248
-0.000218054
-6.64429e-05
0.000227777
-0.00012659
-0.000145959
-0.000461243
-0.000983585
0.000580463
0.000832166
0.000412504
0.00022381
0.000146106
-7.47351e-05
-0.000115303
-6.27656e-05
0.000157781
0.000676857
0.00114078
0.00106377
0.000687201
0.000271986
7.30569e-05
8.68665e-05
-9.57458e-06
-0.000303491
-0.00423014
-0.00159694
-0.00172756
-0.00193025
0.000399465
0.000715046
0.000498227
4.59101e-05
7.37797e-05
0.000265572
0.000106151
-5.37565e-06
-6.84382e-06
-4.29257e-05
-1.4972e-05
-2.1934e-05
-5.0088e-05
0.000131649
4.87947e-05
-4.02137e-05
-0.000129281
-0.000639342
9.76373e-05
0.000393954
0.000264181
0.000127192
0.000101289
5.4354e-05
4.57223e-06
-2.17452e-05
2.95588e-05
0.000289799
0.000577872
0.000497007
0.000219818
7.30598e-05
7.10089e-06
2.58226e-06
7.27681e-06
-2.11158e-05
-0.000927394
-0.000909904
-0.000455485
-0.000522501
0.000161943
0.00028081
0.000192663
4.09792e-05
6.07854e-06
9.49096e-06
5.22213e-06
1.05075e-07
-2.12249e-06
-1.11766e-05
-2.26745e-05
8.74936e-06
-7.81292e-06
3.01994e-05
9.15545e-06
-3.96061e-06
-2.39934e-05
-0.000183183
-2.04614e-05
9.64534e-05
7.86782e-05
4.01683e-05
2.50269e-05
2.33032e-05
8.21552e-06
1.26405e-06
3.40814e-06
4.95859e-05
0.000112742
9.01594e-05
3.14915e-05
1.00979e-05
2.78069e-06
1.01006e-06
-8.09559e-06
-4.1377e-06
-8.83701e-05
-0.000297625
-6.17495e-05
-0.000106564
3.62881e-05
5.79401e-05
3.59976e-05
6.07983e-06
-9.17727e-07
-2.75823e-07
1.10293e-07
9.75908e-08
-1.07083e-07
-1.45347e-07
-4.85025e-06
-3.1137e-06
6.98431e-07
2.51937e-07
-2.83942e-07
-1.92973e-07
-4.63358e-06
-3.26935e-05
-9.51268e-06
1.51413e-05
1.3314e-05
6.27446e-06
2.21589e-06
2.35959e-06
1.0061e-06
6.05807e-07
1.0827e-06
5.80816e-06
9.00331e-06
4.31151e-06
1.27465e-06
6.01417e-07
3.86997e-07
4.03378e-09
-1.09046e-06
-5.56705e-07
-1.43019e-05
-4.95474e-05
-7.78657e-06
-1.5123e-05
6.02578e-06
6.11229e-06
2.33845e-06
-6.02421e-08
-9.88767e-08
-8.56821e-09
9.48566e-09
-4.40145e-10
1.51001e-10
-3.09001e-08
-8.1989e-08
-4.87477e-07
1.2929e-07
-5.59706e-07
-1.09368e-07
1.14365e-08
-6.90556e-07
-3.49413e-06
-7.03141e-07
1.65258e-06
1.23314e-06
4.71382e-07
1.78808e-08
9.41275e-09
4.08482e-08
1.3119e-08
2.01818e-07
3.74291e-07
3.81515e-07
1.24155e-07
1.8093e-08
2.68371e-08
5.34605e-08
4.42647e-08
-5.67155e-08
-9.33569e-08
-2.09868e-06
-5.81685e-06
-5.29967e-07
-1.28952e-06
1.11568e-06
6.19999e-07
1.77627e-07
3.93789e-08
1.3817e-08
4.79487e-10
8.23954e-11
9.42077e-12
2.08682e-11
-2.95438e-10
-1.7692e-10
-3.8387e-08
-3.11028e-09
-5.9138e-08
-1.78041e-09
-1.76802e-10
-1.08228e-08
-1.25507e-07
9.96456e-08
1.81683e-07
9.47677e-08
4.41155e-08
-6.89242e-09
-5.9028e-09
-4.11667e-09
-3.74954e-09
1.55942e-08
1.88998e-08
3.62778e-08
3.27012e-08
4.02824e-11
5.7738e-11
3.15795e-11
-6.25411e-09
-8.39869e-10
-2.61722e-08
-1.99782e-07
-4.70619e-07
3.86043e-08
-9.39439e-08
2.03044e-07
8.05988e-08
1.83956e-08
2.16697e-08
1.43315e-10
4.84981e-14
1.34429e-14
2.22035e-15
-1.83142e-13
-6.79468e-11
-9.54163e-12
-3.34795e-10
-4.08866e-10