/*--------------------------------*- C++ -*----------------------------------*\
| =========                 |                                                 |
| \\      /  F ield         | OpenFOAM: The Open Source CFD Toolbox           |
|  \\    /   O peration     | Version:  5.0                                   |
|   \\  /    A nd           | Web:      www.OpenFOAM.org                      |
|    \\/     M anipulation  |                                                 |
\*---------------------------------------------------------------------------*/
FoamFile
{
    version     2.0;
    format      ascii;
    class       volVectorField;
    location    "50.4676134421789371";
    object      TTU;
}
// * * * * * * * * * * * * * * * * * * * * * * * * * * * * * * * * * * * * * //

dimensions      [0 1 -1 2 0 0 0];

internalField   nonuniform List<vector> 
60000
(
(-0.0133062 -0.00318129 -0.0794049)
(0.0409601 -0.00430005 -0.07352)
(0.0866009 -0.00381571 -0.050677)
(0.0889188 -0.00147618 -0.0101045)
(0.0466681 0.000227961 0.0274643)
(0.00397157 0.000160401 0.0469767)
(-0.0188462 0.000390718 0.0521227)
(-0.0380847 0.000317039 0.0368746)
(-0.0636272 -2.47991e-05 0.00388609)
(-0.0772194 0.000272894 -0.0317317)
(-0.0675999 -0.000865638 -0.0521732)
(-0.0405221 -0.0018303 -0.0505103)
(-0.0214896 -0.00147082 -0.0340436)
(-0.0255214 -0.00136484 -0.014985)
(-0.0354266 -0.00221671 0.00636345)
(-0.0317971 -0.00297266 0.036034)
(-0.022778 -0.000570985 0.0684254)
(-0.0344874 0.00217571 0.091974)
(-0.0731652 0.0041737 0.112141)
(-0.13037 0.00394272 0.109669)
(-0.192181 0.00334631 0.070053)
(-0.240563 0.00122997 0.012602)
(-0.259338 -0.000976902 -0.0378982)
(-0.271061 -0.000777603 -0.0690604)
(-0.307408 0.00210844 -0.0734504)
(-0.355181 0.0043225 -0.0651341)
(-0.380273 0.00376192 -0.0640103)
(-0.349782 0.00142899 -0.077245)
(-0.249164 -0.000968875 -0.0806714)
(-0.142274 -0.00230181 -0.0365812)
(-0.120627 -0.0026308 0.0336631)
(-0.144698 -0.00329124 0.0770877)
(-0.159304 -0.00364501 0.0967559)
(-0.141894 -0.00318558 0.119716)
(-0.0680825 -0.00185626 0.153415)
(0.0227693 0.000206808 0.141604)
(0.00434808 -0.000873453 0.0477099)
(-0.0547011 -0.00179926 -0.0325552)
(-0.0714417 -0.00186032 -0.0662001)
(-0.0536599 -0.00232457 -0.0770974)
(-0.247631 -0.0351806 -0.279576)
(-0.0316073 -0.0331048 -0.17982)
(0.13987 -0.0147305 -0.0605949)
(0.196014 0.0060989 0.0390713)
(0.132855 0.0134682 0.123095)
(0.0232058 0.00440085 0.173043)
(-0.0604773 -0.000874414 0.152935)
(-0.132647 -0.00250924 0.050045)
(-0.257804 0.000274552 -0.116482)
(-0.394714 -0.00715371 -0.265955)
(-0.448532 -0.0210988 -0.328812)
(-0.360288 -0.0267475 -0.274034)
(-0.204108 -0.0123454 -0.131982)
(-0.126859 0.00449321 0.0163031)
(-0.161641 0.00765007 0.133843)
(-0.240632 0.00970479 0.240768)
(-0.32415 0.0203415 0.33098)
(-0.429064 0.0299084 0.385979)
(-0.535187 0.0161526 0.427986)
(-0.642561 -0.0144549 0.381424)
(-0.796477 -0.0309185 0.140112)
(-1.03894 -0.0274542 -0.230837)
(-1.29119 -0.00979167 -0.503079)
(-1.57577 0.0337405 -0.553829)
(-1.96106 0.0858437 -0.435075)
(-2.35582 0.114906 -0.269844)
(-2.59497 0.0940546 -0.170984)
(-2.51742 0.0391657 -0.176339)
(-1.97651 -0.013338 -0.207682)
(-1.18052 -0.025799 -0.106354)
(-0.762236 -0.00823508 0.140999)
(-0.813744 -0.00265365 0.349428)
(-0.976267 -0.0151181 0.44023)
(-1.02757 -0.0272473 0.485787)
(-0.79087 -0.032791 0.532329)
(-0.237576 -0.0114727 0.450786)
(0.0452761 0.0117206 0.139215)
(-0.147427 0.00496843 -0.160653)
(-0.349584 -0.0116515 -0.303093)
(-0.379405 -0.0272911 -0.327541)
(-0.0788109 -0.00945961 -0.055819)
(-0.0453713 -0.0109622 -0.0368282)
(-0.0127317 -0.00517362 -0.00876039)
(0.00576293 0.00156745 0.00834209)
(0.0130809 0.00392079 0.0149895)
(0.00961625 0.00209865 0.0225094)
(-0.000423742 0.000388795 0.0244655)
(-0.0121308 -0.000819417 0.011868)
(-0.030688 0.000506111 -0.0158926)
(-0.061975 -0.000918415 -0.0493464)
(-0.0917689 -0.00497643 -0.0718168)
(-0.0915573 -0.00934649 -0.0677417)
(-0.0560407 -0.00683278 -0.0362391)
(-0.0246699 -0.000191023 -0.000739874)
(-0.0234256 0.00324272 0.0212185)
(-0.0397799 0.00565608 0.0350595)
(-0.0601507 0.00963641 0.0490804)
(-0.0772299 0.0138522 0.0634471)
(-0.0827088 0.00680514 0.0791763)
(-0.0841865 -0.0134153 0.0716454)
(-0.0994339 -0.0269927 0.0110961)
(-0.154349 -0.0229219 -0.0975691)
(-0.231504 -0.00685992 -0.185186)
(-0.303897 0.0190579 -0.18825)
(-0.374621 0.0423262 -0.128258)
(-0.440793 0.0527659 -0.0551435)
(-0.496784 0.0433455 -0.00427571)
(-0.522372 0.0192646 0.0146079)
(-0.449203 -0.0084504 0.0078597)
(-0.271646 -0.0183853 0.00373628)
(-0.13673 -0.00766737 0.0265762)
(-0.117699 0.00230626 0.0592578)
(-0.154188 0.00104776 0.081308)
(-0.192533 -0.00494337 0.0930814)
(-0.188104 -0.0111325 0.10147)
(-0.0978673 -0.00858456 0.0858363)
(-0.00409771 0.00185273 0.0373253)
(-0.00510514 0.00545211 -0.0101702)
(-0.0508945 0.00249783 -0.0402099)
(-0.0828127 -0.00337877 -0.0567911)
(-0.0021322 -0.000436329 -0.00231807)
(-0.00120183 -0.00064004 -0.00185642)
(-1.53259e-06 -0.000318732 -0.000542184)
(0.000431984 6.37726e-05 0.000298284)
(0.000445438 0.000122627 0.000313443)
(0.000367995 6.05691e-05 0.000299914)
(0.000339056 2.651e-05 0.000455751)
(0.000202675 -2.33509e-05 0.000476904)
(-0.000189603 5.37899e-06 -0.000166203)
(-0.00103368 5.41482e-06 -0.00137551)
(-0.00231642 -0.000182955 -0.00275242)
(-0.0024707 -0.000502964 -0.00295492)
(-0.000795601 -0.000410991 -0.00145736)
(0.000288734 -5.11636e-05 -3.06502e-05)
(0.000107809 6.8567e-05 0.000327661)
(-0.000171831 8.32275e-05 0.000342015)
(-0.000637085 0.000209831 0.000729448)
(-0.00154552 0.000688304 0.0022676)
(-0.000281413 0.000631043 0.0056703)
(0.00290393 -0.00223848 0.00671507)
(0.00129704 -0.0036061 0.000635999)
(-0.00228104 -0.0019359 -0.00549517)
(-0.00426655 -0.000320494 -0.0070189)
(-0.00462403 0.000743963 -0.00531088)
(-0.00499805 0.00136042 -0.00309657)
(-0.00572756 0.00161607 -0.000963217)
(-0.00716029 0.00137743 0.000880482)
(-0.0107823 0.000460873 0.00302476)
(-0.011746 -0.00216203 0.00506335)
(-0.0013446 -0.00375322 0.00453937)
(0.00693718 -0.00186333 0.00347704)
(0.00503239 -0.000117199 0.0032342)
(0.00116876 0.000147943 0.00304904)
(-0.00107061 -0.00013211 0.00330289)
(-0.00244817 -0.000666081 0.00479336)
(-0.000119871 -0.000879726 0.00526799)
(0.00340489 -7.65873e-05 0.00243344)
(0.00213337 0.000323278 0.000131458)
(0.000118436 0.00024048 -0.000791589)
(-0.00155456 -2.26844e-06 -0.00167826)
(-1.03397e-05 -2.77489e-06 -1.61445e-05)
(-2.17999e-06 -1.91276e-06 -5.79743e-06)
(2.3984e-08 -3.23891e-08 -7.63309e-08)
(4.08467e-06 1.11174e-07 3.34622e-07)
(2.1294e-05 4.18539e-06 8.41697e-06)
(5.22052e-05 6.89537e-06 2.28334e-05)
(3.94541e-05 2.57421e-06 2.63714e-05)
(2.00989e-06 -1.81605e-08 1.8096e-06)
(1.60802e-06 1.93021e-09 7.93178e-07)
(-1.53787e-06 5.83916e-07 -1.08895e-05)
(-3.87764e-05 -4.01277e-06 -7.46591e-05)
(-4.86468e-05 -1.49732e-05 -8.18422e-05)
(-3.37198e-08 -3.89966e-08 -1.20695e-07)
(6.26876e-05 -1.58459e-05 -2.44374e-05)
(0.000194011 4.05838e-05 0.000173594)
(-5.89733e-05 0.000109375 0.000366019)
(-0.000137189 6.37477e-05 0.000188761)
(-8.67659e-06 5.35143e-06 1.58366e-05)
(0.000464862 0.000124879 0.000986107)
(0.0036488 -0.000934978 0.00251648)
(0.0020078 -0.00123854 0.000501613)
(1.65782e-05 -4.70961e-05 -7.99324e-05)
(-0.000354994 -6.24739e-05 -0.000883349)
(-0.00146903 0.000379715 -0.0022256)
(-0.00109143 0.000498963 -0.000981129)
(-0.000328327 0.00017375 -9.14295e-05)
(-9.3087e-05 3.56214e-05 2.39864e-05)
(-6.42528e-09 3.54397e-10 3.69652e-09)
(-0.000284183 -0.000136127 0.000268167)
(0.000247383 -0.000599824 0.000668381)
(0.00111754 -0.000319928 0.000400038)
(0.000382511 -2.55309e-05 9.89195e-05)
(4.11741e-06 4.25019e-08 1.45502e-06)
(2.19072e-05 -1.43429e-07 1.4887e-05)
(4.07015e-07 -8.17499e-08 6.18135e-07)
(7.39353e-05 -2.38775e-05 0.000129212)
(0.00011935 -7.67534e-06 8.273e-05)
(2.31377e-06 2.15602e-07 5.53427e-07)
(3.84823e-06 9.46338e-07 -4.87903e-07)
(-2.23864e-07 2.26823e-07 -1.44246e-06)
(-1.74006e-06 -2.31471e-07 -3.1976e-06)
(-3.95949e-06 -2.59474e-06 -7.76525e-06)
(-3.55316e-06 -7.28602e-06 -1.95614e-05)
(1.00043e-05 -1.85947e-06 -8.69454e-06)
(2.42663e-05 5.74007e-06 6.56047e-06)
(4.95588e-05 7.69348e-06 1.69571e-05)
(6.21381e-05 4.37458e-06 2.95055e-05)
(3.08445e-05 6.27074e-07 2.10105e-05)
(6.44739e-06 7.1115e-08 3.69571e-06)
(1.05404e-06 1.06172e-07 -4.22461e-07)
(-7.24166e-08 -1.91369e-08 -6.82124e-07)
(-4.25291e-06 -1.84449e-06 -9.58545e-06)
(-2.1077e-06 -1.76369e-06 -5.03362e-06)
(1.59356e-05 -3.70346e-05 -6.11662e-05)
(0.000100021 1.8325e-05 0.000123664)
(-0.000115011 0.000115346 0.000338133)
(-0.000255976 0.00011022 0.000280976)
(-4.22373e-05 1.85573e-05 4.48814e-05)
(6.94377e-05 3.73952e-05 0.000184184)
(0.00290851 -0.000570488 0.00134767)
(0.00286972 -0.00122101 0.000703801)
(9.84062e-06 -9.80572e-06 -9.18266e-06)
(-0.00072691 -0.000253928 -0.00222191)
(-0.00283652 0.00082293 -0.00440596)
(-0.00134044 0.000835371 -0.00145091)
(-0.000170888 0.000155542 -7.58324e-05)
(-1.76178e-05 1.24455e-05 5.73812e-06)
(-3.33998e-05 4.94308e-06 2.00739e-05)
(-1.93644e-06 -6.49385e-07 1.13292e-06)
(-0.000101626 -8.35574e-05 6.96451e-05)
(7.76346e-06 -0.000128655 9.78356e-05)
(3.78385e-05 -1.15104e-05 1.42204e-05)
(2.80357e-05 -1.37183e-06 6.18037e-06)
(0.000191395 -2.46362e-06 4.71462e-05)
(0.000148343 -9.17232e-06 6.6345e-05)
(9.24649e-06 -1.55138e-06 8.22575e-06)
(3.35391e-09 -4.42774e-10 3.43714e-09)
(2.62295e-05 2.14058e-06 1.46362e-05)
(6.29748e-05 1.5921e-05 1.65322e-05)
(1.12919e-05 6.42224e-06 -3.5235e-06)
(4.10122e-07 4.88503e-07 -6.93561e-07)
(-9.41874e-07 -6.27259e-07 -1.93279e-06)
(-1.93729e-06 -2.08073e-06 -5.37556e-06)
(-6.7276e-07 -1.03676e-06 -4.12372e-06)
(1.14986e-06 6.79205e-07 -4.75518e-07)
(4.65453e-06 1.29794e-06 1.58226e-06)
(1.22395e-05 1.09525e-06 5.13179e-06)
(1.17312e-05 4.86929e-07 7.18827e-06)
(5.2148e-06 1.66333e-07 2.97251e-06)
(1.71741e-06 9.37277e-08 2.20852e-07)
(8.67664e-09 -4.53516e-11 -8.28735e-09)
(-3.24215e-09 -5.21273e-07 -2.49711e-06)
(-1.37823e-08 -1.97037e-08 -4.85278e-08)
(-3.7444e-06 -8.21482e-06 -1.12748e-05)
(-1.36284e-05 -3.32058e-06 2.32856e-05)
(-6.24749e-05 2.89109e-05 8.58225e-05)
(-0.000114192 4.56077e-05 0.000106196)
(-9.27057e-05 3.59424e-05 6.98912e-05)
(-2.35896e-06 3.07759e-06 8.30115e-06)
(0.00142043 -0.000307686 0.000358389)
(0.00312178 -0.00106965 0.00057018)
(5.61662e-05 -3.40194e-05 -1.69879e-05)
(-0.000220388 -0.000264065 -0.00150895)
(-0.00146305 0.00053951 -0.00265567)
(-0.00034494 0.000349765 -0.000506402)
(-2.42528e-05 4.01666e-05 -1.62976e-05)
(-1.07074e-07 1.08812e-07 2.84026e-08)
(-4.51697e-08 1.04211e-08 2.11541e-08)
(-7.4248e-06 -1.9443e-06 3.3638e-06)
(-3.39976e-07 -1.61134e-07 1.19245e-07)
(-3.01375e-05 -1.5504e-05 7.77243e-06)
(-2.01148e-05 -1.37007e-05 5.60307e-06)
(1.1891e-07 -1.27318e-07 5.1877e-08)
(2.19801e-05 -2.90574e-06 2.34579e-06)
(6.55099e-05 -5.05486e-06 1.1779e-05)
(2.65785e-05 -2.37873e-06 1.01205e-05)
(2.07715e-06 -1.9939e-07 1.51382e-06)
(4.48015e-06 1.92546e-07 4.07754e-06)
(1.46129e-05 3.9903e-06 1.00007e-05)
(8.50207e-06 4.10126e-06 4.08487e-06)
(4.03415e-07 2.4486e-07 2.88627e-07)
(7.2347e-08 -3.14277e-08 -2.08505e-07)
(-6.80675e-08 -2.15687e-07 -5.86481e-07)
(-8.66785e-08 -1.13834e-07 -5.04833e-07)
(-5.22428e-08 2.20391e-08 -8.3959e-08)
(-3.59842e-08 2.6739e-08 -3.47119e-09)
(1.19227e-07 2.43222e-08 1.32688e-07)
(7.20015e-07 2.8398e-08 6.2124e-07)
(7.50171e-07 3.63237e-08 5.12916e-07)
(3.23407e-07 1.23856e-08 7.6159e-08)
(5.52528e-08 -1.48001e-10 -1.26525e-08)
(8.47529e-07 -2.43179e-07 -9.0072e-07)
(2.92784e-08 -1.29634e-07 -2.34121e-07)
(-6.58481e-07 -1.2828e-06 -1.17159e-06)
(-7.62481e-06 -1.30105e-06 4.60782e-06)
(-1.11529e-05 3.31701e-06 9.92934e-06)
(-1.21478e-05 4.85316e-06 9.71404e-06)
(-5.29909e-05 2.3019e-05 3.32165e-05)
(-3.61926e-06 1.31625e-06 1.19329e-06)
(0.000308226 -0.000113858 -9.53251e-06)
(0.00184158 -0.000645363 0.000151607)
(6.61256e-05 -2.97974e-05 -8.57304e-06)
(0.000187091 -0.000168195 -0.000624896)
(-0.000246743 0.000198452 -0.000833645)
(-4.17727e-05 9.09845e-05 -0.000100002)
(-3.2519e-06 7.88779e-06 -2.71712e-06)
(-6.91174e-07 7.14383e-07 2.52683e-08)
(-5.12079e-08 1.23286e-08 1.25325e-08)
(-9.40224e-08 -2.01598e-08 3.30757e-08)
(-5.29187e-07 -1.99974e-07 1.61903e-07)
(-4.30083e-08 -1.33116e-08 6.0862e-09)
(-3.51355e-06 -8.75484e-07 8.28972e-09)
(-3.59265e-06 -1.1498e-06 -4.03722e-07)
(-4.08372e-09 -1.52496e-08 -5.29135e-09)
(2.48301e-06 -6.23973e-07 1.34133e-07)
(5.8458e-06 -6.72826e-07 1.19466e-06)
(1.84962e-06 -1.23356e-07 7.38387e-07)
(6.72198e-07 6.90246e-09 4.84887e-07)
(1.02699e-06 2.40803e-07 1.10258e-06)
(1.07789e-06 5.34601e-07 1.19174e-06)
(3.76895e-08 2.01072e-08 5.00757e-08)
(3.6269e-08 7.67225e-09 6.61933e-09)
(3.1169e-08 -7.52828e-09 -3.47955e-08)
(1.68583e-08 -3.21909e-09 -3.80164e-08)
(-7.20542e-10 1.08869e-09 -2.5964e-09)
(-4.62563e-12 1.35489e-12 -7.51269e-13)
(-1.30039e-11 2.7744e-13 9.73061e-13)
(-1.13462e-08 -7.11473e-10 7.18033e-09)
(1.25044e-08 5.00537e-10 3.80337e-08)
(9.76804e-09 4.97145e-11 3.45124e-09)
(9.33619e-08 -2.12001e-09 -8.59117e-09)
(8.07907e-07 -1.25958e-07 -3.00908e-07)
(1.27949e-07 -1.02207e-07 -1.12976e-07)
(-1.64588e-07 -3.59972e-07 -1.03172e-07)
(-2.72496e-06 -2.79422e-07 1.53092e-06)
(-1.37938e-06 3.78296e-07 9.45737e-07)
(-1.28632e-08 5.8773e-09 8.40919e-09)
(-8.30018e-06 4.8615e-06 4.4992e-06)
(-1.03543e-05 3.98142e-06 8.97455e-07)
(1.82183e-05 -1.98015e-05 -1.1483e-05)
(0.000502933 -0.000250888 -2.55398e-05)
(3.19244e-05 -1.35067e-05 -3.24511e-06)
(0.000175134 -6.20434e-05 -0.000151723)
(2.61759e-05 5.56442e-05 -0.000168102)
(-1.74123e-06 2.36752e-05 -1.80456e-05)
(-4.90197e-07 1.45042e-06 -4.94723e-07)
(-3.52178e-08 3.26407e-08 -7.20391e-09)
(-2.22212e-08 4.22519e-09 1.40967e-09)
(-7.28412e-09 -1.46013e-09 1.95541e-09)
(-6.87364e-09 -2.06074e-09 1.79233e-09)
(-3.46619e-08 -6.88813e-09 2.50653e-09)
(-1.32576e-08 -1.66722e-09 -1.26829e-09)
(-1.14861e-07 -1.79899e-08 -2.36318e-08)
(-2.56486e-07 -8.83864e-08 -7.99508e-08)
(-8.14165e-11 -4.80964e-09 -1.67818e-09)
(1.47671e-07 -4.60734e-08 2.28435e-08)
(2.97963e-07 -3.41955e-08 8.76987e-08)
(1.03861e-07 -2.04849e-09 4.78375e-08)
(5.88425e-08 6.22806e-09 4.97939e-08)
(6.91014e-08 2.62447e-08 1.06293e-07)
(5.45637e-09 2.08627e-09 9.37598e-09)
(8.67081e-09 1.97488e-09 4.96692e-09)
(4.42595e-09 2.4862e-10 -1.52221e-09)
(2.14453e-09 4.27279e-10 -2.63081e-09)
(-1.30729e-10 2.24665e-09 -3.73825e-09)
(-1.04273e-11 5.84926e-12 -2.53702e-12)
(-4.01129e-14 3.63486e-15 8.855e-15)
(-2.04675e-13 -8.99847e-15 8.01864e-14)
(-4.2408e-09 -1.4302e-10 3.19138e-09)
(2.51198e-09 -5.72218e-10 3.42525e-09)
(1.70737e-08 -1.63003e-09 -1.38706e-09)
(3.48169e-07 -5.13588e-08 -8.35491e-08)
(5.76481e-08 -2.30826e-08 -1.51121e-08)
(-6.30153e-09 -5.46098e-08 2.02078e-08)
(-6.27842e-07 -2.06512e-08 3.90344e-07)
(-2.71114e-07 8.81747e-08 1.54831e-07)
(-2.12345e-07 1.24344e-07 1.11057e-07)
(-9.03857e-08 7.44266e-08 4.12286e-08)
(-2.33108e-06 1.41212e-06 2.1546e-07)
(1.67209e-08 -6.8324e-07 -3.59377e-07)
(5.30755e-05 -5.59921e-05 -1.33146e-05)
(9.32179e-06 -5.05038e-06 -1.13976e-06)
(5.58202e-05 -1.45915e-05 -2.02152e-05)
(2.46628e-05 1.30766e-05 -2.10951e-05)
(1.15031e-06 4.59157e-06 -2.43708e-06)
(-7.82901e-08 2.5473e-07 -1.09397e-07)
(-1.11292e-08 8.79172e-09 -4.84328e-09)
(-7.66757e-14 8.51808e-15 -5.09751e-15)
(-7.56797e-09 -1.63546e-09 1.7617e-09)
(-3.76604e-12 -9.04847e-13 8.51954e-13)
(-3.7736e-11 -4.35162e-12 -5.44374e-13)
(-2.32151e-11 -1.01388e-12 -5.06064e-12)
(-1.38147e-08 -9.32086e-10 -4.70832e-09)
(-5.77396e-12 -1.16873e-12 -2.39153e-12)
(-6.89382e-09 -4.54639e-09 -3.47972e-09)
(3.9642e-11 -6.26447e-11 5.72986e-12)
(9.49882e-09 -2.90021e-09 3.48187e-09)
(7.18506e-09 -7.33182e-10 3.12477e-09)
(1.10544e-08 -1.85605e-11 7.06739e-09)
(5.92027e-09 8.99546e-10 8.10377e-09)
(1.20185e-12 1.71357e-13 2.69019e-12)
(3.67249e-11 6.71304e-12 3.18917e-11)
(6.17377e-11 1.22727e-11 -9.11623e-12)
(8.90279e-12 6.18642e-12 -1.47152e-11)
(-8.88138e-14 5.37376e-13 -8.79925e-13)
(-1.10267e-14 1.51138e-14 -1.26006e-14)
(-4.90651e-13 1.64426e-13 3.7429e-13)
(-1.83979e-12 -1.19467e-13 2.19262e-12)
(-7.53701e-12 -2.32987e-14 7.41516e-12)
(-1.36873e-11 -2.38926e-12 1.50869e-11)
(6.4728e-12 -2.20323e-12 -9.71236e-13)
(1.59327e-08 -3.48293e-09 -4.24142e-09)
(1.69533e-08 -4.81072e-09 -2.97699e-09)
(3.31895e-09 -2.9148e-09 2.051e-09)
(-9.28148e-08 6.8096e-09 8.04853e-08)
(-6.14256e-08 2.74735e-08 3.57158e-08)
(-1.28625e-08 9.0981e-09 5.92273e-09)
(-2.24167e-08 2.10193e-08 7.43091e-09)
(-9.58277e-08 8.80907e-08 8.34263e-09)
(-1.0239e-09 -8.56206e-09 -2.30695e-09)
(1.66088e-06 -5.77803e-06 -8.88091e-07)
(1.34601e-06 -1.29922e-06 -1.69136e-07)
(7.34799e-06 -2.14374e-06 -1.00794e-06)
(5.17722e-06 1.98162e-06 -1.27206e-06)
(2.45957e-07 4.94927e-07 -1.99256e-07)
(-2.66758e-09 1.20121e-08 -6.73949e-09)
(-7.07058e-09 5.31472e-09 -5.01901e-09)
(-1.40532e-11 4.7812e-13 -2.29699e-12)
(-1.51329e-13 -3.72681e-14 3.90181e-14)
(-8.67017e-14 -1.6572e-14 2.02019e-14)
(-1.95573e-13 -8.86976e-15 -1.72528e-14)
(-7.84771e-14 1.25442e-15 -2.67957e-14)
(-3.08214e-14 -3.11347e-16 -1.52296e-14)
(-3.42646e-13 -4.49496e-14 -2.06409e-13)
(-6.92691e-15 -3.50255e-15 -5.1217e-15)
(1.37194e-15 -9.50455e-15 -1.65351e-15)
(3.75307e-14 -2.14489e-14 1.86187e-14)
(6.28896e-12 -1.60447e-12 3.66346e-12)
(4.39688e-12 -5.86874e-13 3.27389e-12)
(7.80057e-13 -4.60057e-14 1.16514e-12)
(4.60998e-14 -2.48421e-14 2.13424e-13)
(6.28907e-13 2.67707e-14 1.00366e-12)
(9.42471e-13 3.8285e-13 -2.50971e-14)
(1.66382e-14 3.11785e-14 -4.64836e-14)
(-4.39904e-18 2.9365e-16 -4.31582e-16)
(3.0099e-19 1.19109e-18 -1.35567e-18)
(2.69016e-18 1.72116e-18 1.36237e-18)
(5.75447e-17 -4.95182e-17 1.3152e-15)
(-1.28748e-14 -1.71135e-16 3.31378e-14)
(-9.65725e-13 -1.20423e-13 1.17327e-12)
(8.04416e-13 -2.60021e-12 -3.9615e-13)
(1.33102e-08 -5.44667e-09 -5.62448e-09)
(2.46479e-10 -7.47912e-11 -5.81141e-11)
(1.28039e-08 -4.143e-09 1.84035e-09)
(-3.84819e-09 1.89419e-09 9.03576e-09)
(-1.32316e-08 7.97329e-09 9.6713e-09)
(-5.40177e-11 4.12499e-11 2.3016e-11)
(-1.40918e-10 1.34574e-10 1.31412e-11)
(-2.95927e-09 3.36529e-09 -5.49799e-10)
(-1.76805e-10 -2.88099e-09 9.77408e-10)
(2.13228e-08 -2.45508e-07 3.91377e-08)
(9.49158e-08 -2.01596e-07 1.73598e-08)
(3.40427e-07 -1.59862e-07 1.57655e-08)
(3.65249e-07 1.25906e-07 -2.30955e-08)
(3.04929e-08 5.18254e-08 -1.94742e-08)
(-5.879e-10 1.15573e-08 -7.99387e-09)
(-3.22423e-12 3.31278e-12 -4.42278e-12)
(-2.38012e-15 -1.1619e-16 -5.92765e-16)
(-2.21396e-17 -6.44513e-18 8.77841e-18)
(-2.20389e-18 -2.84947e-19 7.2421e-19)
(-3.4775e-18 1.48239e-19 -3.25353e-19)
(-1.4575e-18 1.2224e-19 -5.97233e-19)
(-8.60358e-19 2.9977e-20 -5.18872e-19)
(-6.40264e-18 -5.3666e-19 -4.90551e-18)
(-1.73567e-20 -7.45262e-21 -1.83851e-20)
(1.61401e-19 -7.77381e-19 -4.75615e-19)
(1.67631e-17 -9.02869e-18 6.41806e-18)
(8.99782e-15 -2.76169e-15 6.0562e-15)
(3.82107e-16 -1.03862e-16 4.01403e-16)
(9.41701e-18 -4.24993e-18 2.27899e-17)
(7.64751e-20 -3.27074e-19 1.12623e-18)
(8.73123e-18 -1.94899e-17 9.5694e-17)
(5.3401e-17 6.75733e-17 4.70423e-17)
(1.84858e-18 9.71817e-18 -9.19292e-18)
(2.53469e-20 7.9113e-20 -8.32766e-20)
(2.45769e-22 2.24923e-22 -2.1281e-22)
(1.08441e-24 3.23181e-25 -1.43561e-25)
(4.6949e-21 1.93316e-22 3.22895e-21)
(3.83557e-19 -4.64975e-19 1.18679e-17)
(-2.11803e-15 -5.49272e-16 3.98662e-15)
(-5.19365e-13 -1.04592e-12 2.41126e-13)
(6.19059e-12 -5.02624e-12 -4.83186e-12)
(1.60182e-11 -6.46619e-12 -6.41727e-12)
(4.2011e-11 -1.13884e-11 -1.95335e-12)
(3.92429e-12 1.79836e-12 8.72537e-12)
(-5.26893e-13 4.60036e-13 5.73717e-13)
(-2.54106e-12 2.25587e-12 8.01981e-13)
(-2.45658e-12 2.53839e-12 -8.31494e-13)
(-5.55285e-13 6.00537e-13 -2.81543e-13)
(-1.56874e-09 -4.07563e-10 3.59493e-09)
(7.91956e-10 -7.89168e-09 7.11652e-09)
(5.3463e-09 -1.88987e-08 8.76215e-09)
(9.20062e-09 -8.87649e-09 3.60838e-09)
(6.05471e-09 2.20406e-09 -1.33265e-10)
(6.57383e-09 1.1217e-08 -5.24995e-09)
(4.87804e-12 1.29467e-11 -1.07265e-11)
(1.21937e-15 5.7928e-15 -9.03359e-15)
(-4.7912e-18 -1.07158e-18 -9.89724e-19)
(-9.94491e-21 -3.1047e-21 7.4097e-21)
(-1.0014e-22 -3.10194e-24 5.77986e-23)
(-2.03674e-23 3.60556e-24 6.95986e-25)
(-1.20451e-23 2.25717e-24 -4.81129e-24)
(-1.39959e-23 1.29084e-24 -9.08337e-24)
(-8.79026e-23 -4.15165e-24 -7.46446e-23)
(-5.22111e-26 -1.60615e-26 -6.1103e-26)
(-2.18426e-24 -7.70817e-24 -1.0487e-23)
(6.71656e-23 -3.96755e-23 1.40572e-23)
(2.72342e-20 -6.04296e-21 1.81555e-20)
(3.25978e-20 -5.58967e-21 3.40667e-20)
(2.97885e-19 -1.79952e-19 7.42578e-19)
(5.80381e-24 -1.37186e-23 3.67908e-23)
(-4.18296e-22 -1.2659e-21 3.47506e-21)
(-5.54199e-21 2.03003e-21 1.37449e-20)
(4.9324e-23 9.70249e-22 -2.25858e-22)
(6.46547e-24 9.45995e-24 -5.01195e-24)
(4.33784e-26 2.64966e-26 -1.87676e-26)
(1.79598e-27 5.43967e-28 -5.80551e-28)
(7.87186e-25 1.35686e-25 -8.51806e-26)
(6.25096e-23 2.06787e-23 1.16856e-22)
(-1.36365e-20 -7.92058e-22 2.92556e-20)
(-3.21432e-19 -2.99692e-19 3.7798e-19)
(7.30219e-16 -1.49612e-15 -7.06436e-16)
(1.62727e-13 -9.85414e-14 -9.06324e-14)
(2.38245e-13 -7.81125e-14 -4.84884e-14)
(1.86088e-15 6.09423e-17 9.29786e-16)
(-1.0541e-17 3.14709e-17 3.28817e-17)
(-7.00247e-18 8.03193e-18 -4.87133e-19)
(-1.24642e-15 1.2449e-15 -9.56728e-16)
(-2.68478e-14 2.3313e-14 -1.51749e-14)
(-2.19067e-14 9.95747e-15 2.45931e-14)
(2.45332e-14 -4.20108e-13 1.05483e-12)
(1.08986e-13 -2.97119e-13 3.45949e-13)
(1.55905e-12 -2.42077e-12 1.91873e-12)
(2.04094e-12 4.28894e-13 -1.01513e-13)
(1.29708e-13 1.1758e-13 -8.32473e-14)
(1.34005e-16 1.01541e-16 -1.0392e-16)
(1.62716e-21 1.00315e-21 -1.56053e-21)
(-2.42348e-23 -3.67745e-24 6.61712e-24)
(-4.02799e-25 -6.40157e-26 3.46901e-25)
(-2.10673e-27 2.43301e-28 1.85943e-27)
(-2.49947e-29 1.02703e-29 1.1299e-29)
(-6.68744e-29 2.55062e-29 -1.37041e-29)
(-1.0446e-28 1.76108e-29 -6.43229e-29)
(-9.56394e-28 -2.1298e-29 -8.24601e-28)
(-0 -0 -0)
(-1.06078e-28 -8.39869e-29 -2.22693e-28)
(1.82227e-29 -1.92121e-29 -1.41284e-29)
(1.79646e-26 -2.88826e-27 1.21989e-26)
(1.24245e-24 -2.71996e-26 1.36281e-24)
(1.67575e-23 -5.71321e-24 3.01787e-23)
(7.25804e-28 -9.87515e-28 2.69211e-27)
(6.87882e-28 -7.65665e-27 1.79357e-26)
(-1.8626e-26 -6.36349e-26 7.53557e-25)
(2.16675e-26 3.00732e-26 2.97267e-26)
(4.63261e-28 3.68016e-28 2.60992e-29)
(2.89526e-30 1.50943e-30 -8.05793e-31)
(0 0 -0)
(2.52671e-30 7.71646e-31 -1.60795e-30)
(4.05514e-28 3.0085e-28 -1.39088e-28)
(-2.93513e-26 2.96067e-26 7.23586e-26)
(-2.03049e-24 -1.02273e-24 4.42877e-24)
(4.89635e-22 -1.80223e-21 2.90604e-22)
(1.51134e-18 -1.42655e-18 -6.40727e-19)
(1.39479e-17 -6.77738e-18 -3.46443e-18)
(3.59339e-19 -5.55027e-20 1.79155e-20)
(1.49018e-21 2.68662e-21 6.5522e-22)
(-2.45906e-23 3.27851e-23 -1.52553e-23)
(-3.73307e-21 3.54507e-21 -2.50835e-21)
(-2.20558e-19 1.7364e-19 -9.83384e-20)
(-1.20977e-18 4.06949e-19 7.23586e-19)
(-2.23301e-18 -8.74817e-18 2.73515e-17)
(2.45457e-19 -4.04818e-19 7.93112e-19)
(1.06758e-17 -7.72867e-18 1.22662e-17)
(6.65712e-17 -3.58724e-18 1.06229e-17)
(2.52571e-18 8.80875e-19 -9.88443e-19)
(3.7077e-21 2.26603e-21 -3.24102e-21)
(1.14645e-24 2.31252e-24 -3.81866e-24)
(-5.14487e-27 1.83489e-27 -1.51377e-27)
(-2.88625e-29 3.33902e-30 2.05345e-29)
(-5.98839e-30 2.3428e-30 9.63317e-30)
(-5.09846e-30 4.8843e-30 1.0633e-29)
(-0 0 0)
(-4.56657e-30 1.15754e-30 -1.60323e-30)
(-7.28162e-30 -1.32482e-31 -5.73021e-30)
(-0 -0 -0)
(-0 -0 -0)
(-8.54602e-32 -1.24831e-30 -3.37506e-30)
(0 -0 0)
(1.83921e-29 3.35653e-30 2.30992e-29)
(2.24213e-28 -2.96484e-29 4.65385e-28)
(0 -0 0)
(4.0847e-30 -5.66205e-30 9.07992e-30)
(1.42614e-30 -6.27193e-31 1.39516e-30)
(9.21224e-30 2.7707e-30 3.0519e-30)
(0 0 0)
(2.56681e-30 1.58916e-30 2.78259e-31)
(0 0 -0)
(1.04726e-30 4.78692e-31 -1.13983e-30)
(5.92973e-31 4.0372e-31 -1.03029e-30)
(0 0 0)
(7.27577e-30 2.04837e-30 3.31697e-29)
(1.85501e-27 -2.31669e-27 1.58209e-27)
(5.14391e-24 -5.50057e-24 -5.63599e-25)
(5.65384e-22 -3.96689e-22 -1.37437e-22)
(3.91664e-23 -1.20079e-23 -9.06073e-24)
(1.83024e-25 4.00574e-25 -1.91498e-25)
(-0 0 -0)
(-1.07157e-26 1.16053e-26 -3.22029e-27)
(-3.1154e-25 2.70812e-25 -8.40405e-26)
(-1.88981e-23 1.83402e-24 5.94385e-24)
(-6.93857e-23 -1.34414e-22 2.11143e-22)
(1.17637e-27 -1.51304e-26 2.5801e-26)
(2.6934e-23 -2.78809e-23 5.22418e-23)
(9.622e-22 -1.39181e-22 3.85663e-22)
(4.48555e-23 1.76521e-23 -2.33372e-23)
(1.13108e-25 1.4085e-25 -2.12682e-25)
(8.26909e-29 3.75032e-28 -5.11396e-28)
(1.09517e-30 4.46773e-30 -3.32587e-30)
(0 0 0)
(9.33128e-31 6.89259e-31 2.61608e-30)
(6.09971e-31 9.93256e-31 3.54205e-30)
(-7.3304e-31 1.09972e-30 3.28234e-30)
(-3.13028e-30 7.32178e-31 9.52995e-31)
(-2.43179e-29 -1.22881e-30 -1.3661e-29)
(-7.9123e-30 -1.75549e-30 -7.61813e-30)
(-2.60804e-29 -9.96893e-30 -3.49674e-29)
(-2.61461e-30 -1.77214e-30 -6.13697e-30)
(0 -0 -0)
(1.51271e-30 7.49406e-31 1.79004e-30)
(0 0 0)
(9.32557e-31 -3.47431e-31 3.10405e-30)
(0 -0 0)
(0 -0 0)
(3.49196e-30 5.91953e-31 -2.94119e-31)
(0 0 0)
(0 0 0)
(0 0 0)
(1.53967e-31 -9.58989e-32 2.91846e-31)
(-0 -0 -0)
(0 -0 -0)
(5.9518e-30 -9.62322e-32 5.01111e-30)
(3.42697e-30 -1.76932e-30 1.61351e-30)
(0 -0 0)
(1.77147e-26 -1.38914e-26 -4.30944e-27)
(2.65176e-27 -1.01125e-27 -1.10869e-27)
(-1.33491e-30 2.67013e-29 -7.38947e-30)
(-0 0 0)
(-0 0 -0)
(-0 0 -0)
(-1.03845e-28 -4.33971e-29 1.58922e-29)
(-1.64144e-28 -7.84709e-28 7.30544e-28)
(-9.65248e-31 -3.96721e-30 5.14987e-30)
(-4.88772e-29 -1.40361e-28 2.2978e-28)
(-6.44165e-27 -2.15369e-27 8.96994e-27)
(-8.42544e-28 9.48821e-28 -8.36825e-28)
(-5.31112e-30 1.19485e-29 -1.25872e-29)
(0 0 -0)
(0 0 -0)
(5.51428e-30 5.30588e-31 7.46e-31)
(4.84179e-30 7.59238e-31 2.06554e-30)
(3.01108e-30 1.32393e-30 3.17602e-30)
(8.60148e-31 1.22607e-30 3.77371e-30)
(-1.48942e-30 3.47056e-31 2.7915e-30)
(-0 -0 -0)
(-0 -0 -0)
(-7.38372e-30 -2.92572e-30 -8.52073e-30)
(-2.18558e-29 -1.06069e-29 -3.08082e-29)
(-0 -0 -0)
(-1.2585e-30 1.98972e-30 1.03197e-30)
(5.52135e-31 6.75716e-31 2.88567e-30)
(7.74029e-31 7.46528e-32 2.21701e-30)
(1.74471e-30 -3.40981e-31 1.32248e-30)
(2.91725e-30 -1.25378e-31 1.60081e-33)
(0 0 -0)
(5.72377e-30 1.332e-30 -1.01204e-32)
(1.78e-29 5.74968e-30 3.99019e-30)
(1.39944e-30 5.46568e-31 1.60794e-30)
(-1.09889e-30 -8.18508e-31 1.25644e-30)
(-1.68232e-30 -1.53755e-30 2.92023e-31)
(-0 -0 -0)
(1.76093e-30 -8.44364e-31 4.76005e-31)
(4.43204e-30 -1.6094e-30 1.0312e-30)
(6.17672e-30 -3.18589e-30 2.9083e-31)
(5.65732e-30 -3.13139e-30 -9.01895e-31)
(0 -0 -0)
(-1.23618e-30 3.2445e-30 3.48766e-31)
(-0 0 0)
(-1.85217e-29 1.41203e-29 -2.1562e-30)
(-3.15241e-30 1.17223e-30 -1.62041e-30)
(-1.07201e-30 -1.36433e-30 -9.32513e-31)
(-0 -0 0)
(-1.10318e-30 -3.44547e-30 3.95219e-30)
(-3.05392e-30 -2.01456e-30 3.96894e-30)
(-4.68167e-30 4.11105e-31 1.58136e-30)
(-4.6065e-30 2.26168e-30 -1.18675e-30)
(-1.62881e-30 2.37013e-30 -2.36802e-30)
(0 0 -0)
(0 0 -0)
(6.78693e-30 7.0668e-31 4.04905e-31)
(0 0 0)
(0 0 0)
(1.72139e-30 2.32131e-30 3.55933e-30)
(0 0 0)
(0 -0 0)
(-0 -0 -0)
(-0 -0 -0)
(-6.79332e-30 -2.71434e-30 -7.66232e-30)
(-0 -0 -0)
(-3.14564e-30 -3.93635e-31 -1.51308e-30)
(-0 0 0)
(-5.35281e-31 -2.42049e-31 -1.16958e-31)
(0 -0 -0)
(0 -0 -0)
(6.61814e-30 3.92099e-31 -1.26543e-30)
(0 0 -0)
(0 0 0)
(-1.25374e-30 1.65778e-30 2.5045e-30)
(-0 -0 0)
(-0 -0 0)
(-0 -0 0)
(1.99942e-30 -1.98999e-30 -3.70725e-31)
(0 -0 -0)
(0 -0 0)
(1.98212e-29 -4.81955e-30 2.79728e-30)
(1.60754e-30 4.79087e-31 1.07314e-30)
(-1.95157e-30 2.23375e-30 1.10288e-30)
(-0 0 -0)
(-4.51113e-30 2.415e-30 -1.78192e-30)
(-0 0 -0)
(-9.84348e-31 -8.70164e-31 -2.08334e-30)
(3.0629e-31 -2.37721e-30 -2.91811e-31)
(-0 -0 0)
(-1.87655e-30 -1.24758e-30 2.43581e-30)
(-0 0 0)
(4.02788e-31 1.70388e-30 6.45755e-31)
(3.90348e-30 1.2407e-30 3.7784e-31)
(5.48984e-30 5.34624e-31 4.28949e-31)
(3.54086e-30 7.86647e-31 -7.84632e-32)
(-0 0 -0)
(-3.42326e-30 2.96804e-30 -1.00489e-30)
(-3.04787e-30 3.15185e-30 1.07725e-30)
(0 0 0)
(0 0 0)
(0 -0 0)
(9.93245e-30 -8.90338e-30 4.20048e-30)
(-1.45622e-30 -2.22214e-30 -3.62071e-30)
(-4.53468e-30 -2.11683e-30 -6.13101e-30)
(-0 -0 -0)
(-4.94924e-30 -1.28427e-30 -2.74377e-30)
(-0 -0 -0)
(-2.28201e-30 -1.1743e-30 -2.20297e-30)
(0 -0 -0)
(3.37814e-30 -5.93884e-31 -3.17826e-30)
(4.75109e-30 1.00346e-30 -2.38272e-30)
(3.28668e-30 2.93321e-30 -6.4187e-31)
(0 0 0)
(-2.72131e-30 1.14018e-29 1.25617e-29)
(-9.75956e-31 -2.73008e-31 4.06516e-30)
(-0 -0 0)
(0 -0 0)
(0 -0 -0)
(0 -0 -0)
(5.31833e-30 -8.13335e-31 -9.18346e-31)
(0 0 0)
(8.41837e-31 7.55228e-31 1.08189e-30)
(-0 0 0)
(-0 0 -0)
(-0 0 -0)
(-0 0 -0)
(-0 0 -0)
(2.80965e-31 -1.34084e-30 -1.24476e-30)
(0 -0 -0)
(1.1378e-30 -1.14684e-30 4.018e-31)
(1.71861e-30 1.42152e-31 8.78114e-31)
(2.71269e-30 9.25717e-31 6.71504e-31)
(0 0 -0)
(1.088e-30 8.3566e-31 -1.37716e-30)
(-0 0 -0)
(-3.77103e-30 1.83835e-30 -2.31134e-30)
(-4.57917e-30 2.57963e-30 -5.39284e-31)
(-0 0 0)
(-0 0 0)
(0 0 0)
(4.90679e-30 -1.25803e-30 7.00407e-30)
(5.29313e-30 -1.8953e-30 3.76829e-30)
(0 -0 -0)
(-1.01753e-30 -1.21857e-30 -3.8467e-30)
(-3.17257e-30 -1.03023e-30 -4.57472e-30)
(-0 -0 -0)
(-0 -0 -0)
(-0 -0 -0)
(-1.01003e-31 -1.79001e-30 -2.73728e-30)
(0 -0 -0)
(0 0 -0)
(5.23658e-31 3.13263e-30 -5.04751e-31)
(4.56257e-31 4.49928e-30 8.63963e-31)
(8.8194e-31 3.36436e-30 1.90964e-30)
(0 0 0)
(2.01558e-30 -3.92286e-30 3.09609e-30)
(0 -0 0)
(1.83294e-30 -5.96724e-30 -3.00707e-31)
(0 -0 -0)
(0 -0 -0)
(1.41354e-30 6.08565e-31 -2.71752e-30)
(0 0 -0)
(-9.34759e-31 1.3312e-30 -5.99756e-31)
(-1.94614e-30 1.73785e-30 1.08402e-31)
(-0 0 0)
(-0 0 0)
(-0 0 0)
(-0 -0 0)
(1.70939e-31 -1.58212e-30 -2.44765e-31)
(1.49871e-30 -1.99833e-30 -2.75913e-31)
(2.34971e-30 -1.26689e-30 -8.43673e-32)
(2.53219e-30 -1.44538e-31 -5.8617e-32)
(1.95552e-30 6.52427e-31 -4.09951e-31)
(8.21467e-31 1.03625e-30 -1.0434e-30)
(-0 0 -0)
(-1.41262e-30 1.86598e-30 -1.44e-30)
(-0 0 -0)
(-3.08024e-30 2.48017e-30 1.63294e-30)
(-0 0 0)
(-2.04462e-30 -5.47926e-31 6.12348e-30)
(0 -0 0)
(2.80363e-30 -2.45254e-30 4.91139e-30)
(2.56229e-30 -1.36613e-30 1.29173e-30)
(0 -0 -0)
(-0 -0 -0)
(-1.20721e-30 1.34363e-31 -3.9865e-30)
(-0 0 -0)
(0 0 -0)
(2.18561e-30 -9.50913e-31 -1.77832e-30)
(1.4628e-30 -1.1587e-30 -1.41233e-30)
(0 0 -0)