/*--------------------------------*- C++ -*----------------------------------*\
| =========                 |                                                 |
| \\      /  F ield         | OpenFOAM: The Open Source CFD Toolbox           |
|  \\    /   O peration     | Version:  5.0                                   |
|   \\  /    A nd           | Web:      www.OpenFOAM.org                      |
|    \\/     M anipulation  |                                                 |
\*---------------------------------------------------------------------------*/
FoamFile
{
    version     2.0;
    format      ascii;
    class       volVectorField;
    location    "50.4676134421789371";
    object      TTUMean;
}
// * * * * * * * * * * * * * * * * * * * * * * * * * * * * * * * * * * * * * //

dimensions      [0 1 -1 2 0 0 0];

internalField   nonuniform List<vector> 
60000
(
(0.00208153 -0.00206235 -0.0407621)
(0.0293367 -0.00244003 -0.0364904)
(0.0486583 -0.00189749 -0.0233024)
(0.0449422 -0.000593106 -0.00320247)
(0.0220794 0.000258363 0.013966)
(0.00153047 0.000328529 0.0230585)
(-0.0089388 0.00022322 0.0258517)
(-0.0185732 0.000139649 0.0184229)
(-0.0316181 0.000123914 0.00209021)
(-0.0374014 -4.53997e-05 -0.0155887)
(-0.0298668 -0.000752084 -0.0257158)
(-0.0143659 -0.00119952 -0.0248058)
(-0.00632897 -0.000796481 -0.0168148)
(-0.0108253 -0.000692587 -0.00792891)
(-0.015878 -0.0012004 0.0028354)
(-0.0120704 -0.00157576 0.018171)
(-0.00612122 -0.000135989 0.0347592)
(-0.0125644 0.00156069 0.0479567)
(-0.036151 0.0028299 0.0610055)
(-0.0739259 0.00289449 0.0620934)
(-0.117072 0.00283191 0.041456)
(-0.150931 0.00131849 0.0101971)
(-0.164148 -0.000349506 -0.018816)
(-0.171826 -0.000445189 -0.0385176)
(-0.198379 0.00160049 -0.044281)
(-0.232029 0.00272605 -0.043662)
(-0.242454 0.00136731 -0.0476465)
(-0.20237 -0.00113625 -0.0573636)
(-0.118884 -0.00230794 -0.0538488)
(-0.0580641 -0.00180969 -0.0197554)
(-0.0595916 -0.00132598 0.0221842)
(-0.0800064 -0.00192649 0.0462385)
(-0.0884607 -0.00270611 0.0580649)
(-0.0712359 -0.00292209 0.0726752)
(-0.0190388 -0.00204273 0.089071)
(0.0259186 0.000381945 0.0740146)
(0.0037341 -0.000292222 0.0208244)
(-0.0286436 -0.000743728 -0.0188625)
(-0.0343462 -0.00112264 -0.0351394)
(-0.0213435 -0.00146706 -0.0402521)
(-0.0861827 -0.0161947 -0.116399)
(0.00781206 -0.0140977 -0.0698315)
(0.0754399 -0.00523675 -0.0189495)
(0.0915942 0.00333186 0.0203158)
(0.0591534 0.00577973 0.0535101)
(0.0111757 0.00200406 0.072449)
(-0.0231347 -0.000678151 0.0619875)
(-0.0530739 -0.00116112 0.0167848)
(-0.106559 0.000227703 -0.0543593)
(-0.163648 -0.00375442 -0.11644)
(-0.182524 -0.0097214 -0.140401)
(-0.138722 -0.011656 -0.112747)
(-0.0703319 -0.00454933 -0.0489924)
(-0.0417867 0.00259563 0.0134449)
(-0.0603611 0.00346487 0.0619123)
(-0.0947443 0.00427197 0.106708)
(-0.129917 0.00862955 0.144097)
(-0.17601 0.0124095 0.167435)
(-0.224838 0.00573779 0.18416)
(-0.275767 -0.00740338 0.15949)
(-0.349587 -0.0133361 0.0464182)
(-0.464397 -0.0111825 -0.118617)
(-0.587717 -0.00267221 -0.233761)
(-0.733936 0.0177218 -0.24963)
(-0.938354 0.0437979 -0.193073)
(-1.15185 0.0581417 -0.119074)
(-1.27805 0.0464773 -0.0782063)
(-1.2156 0.0167075 -0.0849694)
(-0.900984 -0.00943854 -0.0974305)
(-0.494975 -0.0127541 -0.0416034)
(-0.314848 -0.00320433 0.0749091)
(-0.355804 -0.00179091 0.165968)
(-0.437983 -0.00889351 0.203041)
(-0.456351 -0.0149293 0.221809)
(-0.328251 -0.016604 0.236436)
(-0.0672897 -0.00423735 0.188096)
(0.0394297 0.00536005 0.0463608)
(-0.0569636 0.00168086 -0.0781729)
(-0.143236 -0.00612147 -0.134795)
(-0.150045 -0.0130477 -0.141338)
(-0.0287854 -0.00380345 -0.021082)
(-0.0158622 -0.00412923 -0.0133466)
(-0.00383084 -0.00172835 -0.00257829)
(0.00289567 0.000731689 0.00339946)
(0.00545539 0.00149038 0.00563691)
(0.00394465 0.000768668 0.00839993)
(9.29348e-05 8.19469e-05 0.00899732)
(-0.00427698 -0.000318383 0.00405415)
(-0.0113066 0.000197215 -0.00654108)
(-0.0231285 -0.000446285 -0.0190782)
(-0.0340591 -0.00201834 -0.0272942)
(-0.033214 -0.00359195 -0.0252011)
(-0.0193005 -0.00242134 -0.0127781)
(-0.00794533 9.36195e-05 0.000467044)
(-0.0080583 0.00127158 0.00833263)
(-0.0143451 0.0021679 0.0133709)
(-0.0219372 0.00367727 0.0187673)
(-0.0281978 0.00522099 0.0244829)
(-0.0299398 0.0021551 0.0303427)
(-0.0302512 -0.00575582 0.0262527)
(-0.035919 -0.0104253 0.00156767)
(-0.0568113 -0.00839672 -0.0397812)
(-0.0854311 -0.00207441 -0.0708575)
(-0.111953 0.0077122 -0.0697081)
(-0.138135 0.0165526 -0.0459823)
(-0.163078 0.0202335 -0.0184987)
(-0.185298 0.0163509 0.000165379)
(-0.196126 0.00676792 0.00679599)
(-0.166947 -0.00391829 0.00366804)
(-0.097579 -0.00700585 0.00208878)
(-0.0471851 -0.00249075 0.0110561)
(-0.0418985 0.000958596 0.0234459)
(-0.0568994 8.54797e-05 0.0314855)
(-0.0719578 -0.00226694 0.0358108)
(-0.0698333 -0.00446891 0.0386078)
(-0.0343059 -0.0030242 0.0317863)
(0.000529595 0.00098129 0.01303)
(-0.00137039 0.00206285 -0.0046793)
(-0.0191902 0.000805218 -0.0158251)
(-0.0309343 -0.00153568 -0.0219046)
(-0.000711829 -0.000155221 -0.000786265)
(-0.00037966 -0.000210719 -0.000599417)
(7.11405e-06 -9.4265e-05 -0.000155488)
(0.000136957 2.41895e-05 9.85216e-05)
(0.000134883 3.71077e-05 9.27727e-05)
(0.0001087 1.74359e-05 8.72809e-05)
(0.000106992 7.50179e-06 0.000142335)
(6.68467e-05 -8.4558e-06 0.000154092)
(-6.75395e-05 2.03522e-06 -6.82024e-05)
(-0.000364094 7.58785e-07 -0.000489022)
(-0.000801313 -6.90754e-05 -0.000958232)
(-0.000809139 -0.000172429 -0.000983851)
(-0.000228103 -0.000126962 -0.000445224)
(9.07658e-05 -1.22451e-05 -9.08041e-07)
(2.84896e-05 1.8925e-05 8.96139e-05)
(-4.57168e-05 2.21061e-05 9.07371e-05)
(-0.000196152 6.55313e-05 0.000228758)
(-0.000527879 0.000247172 0.000838331)
(1.00293e-05 0.000198391 0.00219344)
(0.00114635 -0.000925789 0.00245116)
(0.000438756 -0.00130042 7.67019e-05)
(-0.000779555 -0.000621635 -0.00190247)
(-0.00130041 -8.25028e-05 -0.00214921)
(-0.00132873 0.000223216 -0.00152328)
(-0.0014401 0.000401822 -0.00087764)
(-0.00170857 0.000487438 -0.000262972)
(-0.00226888 0.000430047 0.00031737)
(-0.00364478 0.000107422 0.00110727)
(-0.00385643 -0.0008754 0.00186761)
(3.50467e-05 -0.00136744 0.00164246)
(0.00268328 -0.000616198 0.00123901)
(0.00176746 -2.67929e-05 0.00111566)
(0.000401548 4.49864e-05 0.0010188)
(-0.000342675 -5.11347e-05 0.00110869)
(-0.00080384 -0.000240012 0.00165649)
(4.94275e-05 -0.000296793 0.00179402)
(0.00118779 -1.13018e-05 0.000779924)
(0.000687961 0.000108002 2.52904e-05)
(2.41549e-05 7.69039e-05 -0.000273075)
(-0.000538032 -8.38682e-06 -0.000582245)
(-2.95857e-06 -8.36338e-07 -4.67406e-06)
(-5.13082e-07 -4.7556e-07 -1.42322e-06)
(7.42273e-07 -5.48411e-07 -1.27065e-06)
(4.72673e-06 3.66899e-07 8.53062e-07)
(1.42693e-05 2.83511e-06 5.63243e-06)
(2.8891e-05 3.62491e-06 1.2435e-05)
(2.0044e-05 1.152e-06 1.33808e-05)
(1.30849e-06 -2.18339e-08 1.16152e-06)
(4.61299e-07 1.25572e-09 2.10198e-07)
(-6.92714e-07 2.07573e-07 -4.09853e-06)
(-1.49828e-05 -1.74223e-06 -2.84218e-05)
(-1.51893e-05 -4.83336e-06 -2.57184e-05)
(-5.85202e-07 -1.24406e-06 -3.62016e-06)
(4.19216e-05 -7.70334e-06 -9.76012e-06)
(9.30327e-05 2.31632e-05 9.38383e-05)
(-3.34215e-05 5.09292e-05 0.000170728)
(-5.7254e-05 2.69617e-05 8.01436e-05)
(-4.96562e-06 3.75304e-06 1.15252e-05)
(0.000267888 4.4263e-05 0.000466151)
(0.00157546 -0.000442068 0.00104713)
(0.000720591 -0.000470621 0.000147053)
(3.56345e-06 -1.08344e-05 -1.88691e-05)
(-0.000237076 -2.60316e-05 -0.000559799)
(-0.000733713 0.000207148 -0.00108409)
(-0.000497395 0.000237401 -0.000427143)
(-0.000146458 7.82698e-05 -3.39441e-05)
(-4.19263e-05 1.53019e-05 1.24234e-05)
(-3.17955e-07 -7.67209e-09 2.13656e-07)
(-0.000116002 -6.87574e-05 0.000121474)
(0.000148262 -0.000246516 0.000267467)
(0.000432578 -0.000113286 0.000145506)
(0.000117753 -7.34547e-06 3.03085e-05)
(3.99833e-06 4.45742e-08 1.45513e-06)
(1.79314e-05 -3.33375e-07 1.29492e-05)
(2.75923e-07 -6.59404e-08 4.45978e-07)
(2.59845e-05 -8.11993e-06 4.42585e-05)
(3.70603e-05 -2.09653e-06 2.4755e-05)
(1.62867e-06 1.70017e-07 3.24337e-07)
(3.16316e-06 8.10193e-07 -6.23354e-07)
(-6.13362e-08 5.29887e-08 -3.59636e-07)
(-8.47329e-07 -1.57713e-07 -1.50237e-06)
(-2.11492e-06 -1.48712e-06 -4.33107e-06)
(-1.47147e-06 -3.49595e-06 -9.35656e-06)
(4.82196e-06 -5.02961e-07 -3.29798e-06)
(1.0971e-05 2.64471e-06 3.18302e-06)
(2.22226e-05 3.26049e-06 7.45851e-06)
(2.71044e-05 1.72803e-06 1.28376e-05)
(1.27523e-05 2.01879e-07 8.64619e-06)
(2.59786e-06 3.31851e-08 1.42943e-06)
(3.87997e-07 4.11572e-08 -1.96929e-07)
(-5.6179e-08 -1.606e-08 -3.7583e-07)
(-1.55417e-06 -6.8864e-07 -3.43174e-06)
(-1.73559e-06 -1.59695e-06 -4.31194e-06)
(9.84555e-06 -1.66558e-05 -2.60097e-05)
(4.1096e-05 1.14796e-05 6.19742e-05)
(-5.50321e-05 5.00977e-05 0.000145796)
(-0.000105667 4.53007e-05 0.000114943)
(-1.29172e-05 5.84621e-06 1.42009e-05)
(5.73995e-05 1.60038e-05 9.98627e-05)
(0.00134842 -0.000286812 0.000604832)
(0.00108534 -0.000486649 0.000243375)
(3.56786e-06 -4.3425e-06 -5.15832e-06)
(-0.000411758 -0.000101539 -0.00112557)
(-0.00123562 0.000391672 -0.00186708)
(-0.000526677 0.000341821 -0.000552287)
(-6.28116e-05 5.74748e-05 -2.47412e-05)
(-7.16015e-06 4.78577e-06 2.56278e-06)
(-1.43174e-05 1.43882e-06 8.53964e-06)
(-4.78285e-07 -1.67257e-07 2.78934e-07)
(-4.59939e-05 -4.06378e-05 3.22529e-05)
(8.5708e-06 -5.05039e-05 3.84182e-05)
(1.22961e-05 -3.49288e-06 4.43496e-06)
(1.81341e-05 -7.52517e-07 3.89887e-06)
(8.9071e-05 -1.24063e-06 2.26669e-05)
(6.18917e-05 -4.10336e-06 2.90813e-05)
(3.54661e-06 -6.09529e-07 3.29085e-06)
(1.1132e-07 -1.17556e-08 1.12307e-07)
(1.32956e-05 1.25013e-06 7.08797e-06)
(2.6826e-05 7.02845e-06 6.59493e-06)
(4.08545e-06 2.45984e-06 -1.77801e-06)
(1.06858e-07 1.6346e-07 -3.35571e-07)
(-4.6891e-07 -3.24349e-07 -9.51581e-07)
(-8.91837e-07 -9.59822e-07 -2.47114e-06)
(-2.73483e-07 -3.84134e-07 -1.6743e-06)
(5.05355e-07 3.14907e-07 -1.30828e-07)
(2.09119e-06 5.39979e-07 7.03394e-07)
(5.36767e-06 4.20324e-07 2.22033e-06)
(4.96769e-06 1.86788e-07 3.02121e-06)
(2.11248e-06 6.75156e-08 1.16206e-06)
(6.61012e-07 3.61623e-08 6.46558e-08)
(3.38382e-09 -1.22239e-10 -3.87657e-09)
(-4.04786e-08 -2.4128e-07 -1.07811e-06)
(-1.86924e-08 -2.68662e-08 -6.05525e-08)
(-1.87018e-06 -4.01628e-06 -5.16842e-06)
(-6.75511e-06 -4.9615e-07 1.20771e-05)
(-2.74143e-05 1.27121e-05 3.67308e-05)
(-4.84482e-05 1.93886e-05 4.45379e-05)
(-3.45649e-05 1.36189e-05 2.61366e-05)
(1.29631e-06 1.77897e-06 6.29402e-06)
(0.0007109 -0.000159898 0.000175526)
(0.00123702 -0.000439313 0.00021478)
(1.28492e-05 -7.90148e-06 -4.15508e-06)
(-0.000159238 -0.000105559 -0.000755423)
(-0.00061028 0.000250045 -0.0010793)
(-0.000127983 0.000136072 -0.000183403)
(-8.66185e-06 1.42639e-05 -5.18278e-06)
(-2.55587e-08 2.54972e-08 7.03836e-09)
(-1.30459e-08 2.5676e-09 6.18091e-09)
(-3.35016e-06 -9.82644e-07 1.47205e-06)
(-9.77072e-08 -4.68992e-08 3.32256e-08)
(-1.37602e-05 -7.13474e-06 3.39837e-06)
(-7.16517e-06 -5.14879e-06 2.03995e-06)
(3.78362e-08 -3.29058e-08 1.33425e-08)
(1.13015e-05 -1.37048e-06 1.23045e-06)
(2.83005e-05 -2.13331e-06 5.35899e-06)
(1.02731e-05 -9.0919e-07 4.08805e-06)
(8.11605e-07 -7.47951e-08 6.15737e-07)
(2.06174e-06 1.18332e-07 1.89221e-06)
(6.1682e-06 1.76716e-06 4.17177e-06)
(3.30168e-06 1.63653e-06 1.53476e-06)
(1.50412e-07 9.16132e-08 1.0159e-07)
(2.33167e-08 -1.82746e-08 -9.45649e-08)
(-3.41359e-08 -9.56524e-08 -2.62474e-07)
(-3.88587e-08 -4.13612e-08 -2.00743e-07)
(-2.10826e-08 9.32146e-09 -2.92223e-08)
(-1.42462e-08 1.01764e-08 -6.78253e-10)
(5.94956e-08 6.9495e-09 5.76269e-08)
(3.17341e-07 1.05528e-08 2.64494e-07)
(3.15338e-07 1.46052e-08 2.06083e-07)
(1.20041e-07 4.51323e-09 2.5546e-08)
(3.71393e-08 -5.51167e-10 -1.02284e-08)
(3.49034e-07 -1.18633e-07 -4.08138e-07)
(6.99578e-09 -3.67676e-08 -6.52921e-08)
(-4.05183e-07 -6.68644e-07 -5.48751e-07)
(-3.50573e-06 -3.85867e-07 2.30996e-06)
(-4.53209e-06 1.40513e-06 4.03685e-06)
(-5.56293e-06 2.25912e-06 4.4127e-06)
(-2.25127e-05 9.84804e-06 1.37544e-05)
(-8.69958e-07 3.12479e-07 2.82355e-07)
(0.000175586 -6.29666e-05 -2.1664e-06)
(0.000759477 -0.000268502 6.2176e-05)
(1.53828e-05 -6.97504e-06 -2.10756e-06)
(5.99769e-05 -6.63642e-05 -0.00030925)
(-0.000102631 8.93481e-05 -0.000328195)
(-1.52263e-05 3.40943e-05 -3.50281e-05)
(-1.21438e-06 2.8345e-06 -8.93482e-07)
(-2.50472e-07 2.43167e-07 1.39292e-08)
(-3.9204e-08 6.69526e-09 1.02113e-08)
(-2.94269e-08 -6.77986e-09 1.02969e-08)
(-2.55156e-07 -9.67429e-08 7.34363e-08)
(-1.06283e-08 -3.26568e-09 1.42422e-09)
(-1.62554e-06 -4.09328e-07 -1.55902e-08)
(-1.32262e-06 -4.47696e-07 -1.6196e-07)
(1.51655e-10 -4.85685e-09 -1.56806e-09)
(1.25456e-06 -2.83916e-07 8.67731e-08)
(2.43634e-06 -2.64855e-07 5.23023e-07)
(7.24035e-07 -4.4809e-08 3.00661e-07)
(2.76392e-07 5.4236e-09 2.08149e-07)
(4.21215e-07 1.07566e-07 4.66033e-07)
(4.25813e-07 2.18081e-07 4.73562e-07)
(1.695e-08 9.04414e-09 2.19358e-08)
(1.63227e-08 2.96706e-09 1.53034e-09)
(1.41634e-08 -3.62843e-09 -1.70459e-08)
(5.94542e-09 -8.52173e-10 -1.41503e-08)
(-5.06779e-10 5.80708e-10 -1.18702e-09)
(-1.6731e-11 3.63771e-12 -1.75991e-12)
(-1.38513e-10 -4.13802e-12 1.10467e-11)
(-4.78934e-09 -3.72443e-10 3.42115e-09)
(5.67505e-09 1.70904e-10 1.38662e-08)
(5.12526e-09 2.19431e-11 1.57097e-09)
(5.42281e-08 -1.49763e-09 -6.28082e-09)
(3.53969e-07 -6.24176e-08 -1.3881e-07)
(3.92395e-08 -3.40918e-08 -3.6365e-08)
(-1.11935e-07 -1.78134e-07 -3.24083e-08)
(-1.22996e-06 -7.51768e-08 7.14771e-07)
(-4.74437e-07 1.35444e-07 3.25991e-07)
(-3.03858e-09 1.39736e-09 1.9838e-09)
(-4.0248e-06 2.38306e-06 2.10744e-06)
(-3.52441e-06 1.20108e-06 1.00579e-07)
(1.37157e-05 -1.27397e-05 -6.65362e-06)
(0.000217741 -0.000105695 -9.11838e-06)
(7.54317e-06 -3.1913e-06 -7.93688e-07)
(7.30923e-05 -2.44332e-05 -7.42576e-05)
(8.13448e-06 2.44924e-05 -6.5004e-05)
(-7.67662e-07 8.68179e-06 -6.24101e-06)
(-1.79743e-07 4.95351e-07 -1.62394e-07)
(-1.47068e-08 1.25287e-08 -2.62585e-09)
(-8.78963e-09 1.32118e-09 7.10933e-10)
(-4.74211e-09 -1.0689e-09 1.30394e-09)
(-2.03959e-09 -6.07763e-10 5.12604e-10)
(-1.62891e-08 -3.1119e-09 8.58839e-10)
(-3.96583e-09 -5.01354e-10 -4.057e-10)
(-6.63698e-08 -1.12886e-08 -1.42985e-08)
(-9.4227e-08 -3.53047e-08 -3.03546e-08)
(1.32198e-11 -1.07494e-09 -3.67902e-10)
(7.14864e-08 -2.00564e-08 1.20494e-08)
(1.19746e-07 -1.26151e-08 3.63048e-08)
(4.54782e-08 -5.12823e-10 2.17584e-08)
(2.55019e-08 3.02675e-09 2.29476e-08)
(2.59836e-08 1.04496e-08 4.14253e-08)
(1.55224e-09 5.98154e-10 2.65815e-09)
(2.91654e-09 6.38152e-10 1.53047e-09)
(2.23908e-09 1.27254e-10 -9.00318e-10)
(6.75455e-10 1.67945e-10 -8.85594e-10)
(-6.06415e-11 6.03528e-10 -9.77133e-10)
(-3.59308e-12 1.8695e-12 -7.17121e-13)
(-5.22727e-13 1.20605e-14 1.23676e-13)
(-7.51218e-12 -4.46664e-13 2.96529e-12)
(-1.14303e-09 -4.04227e-11 8.73449e-10)
(7.65423e-10 -1.62118e-10 9.22539e-10)
(9.55054e-09 -9.15643e-10 -1.01552e-09)
(1.49248e-07 -2.34219e-08 -3.63254e-08)
(2.06735e-08 -8.95744e-09 -5.26956e-09)
(-1.20421e-08 -3.01848e-08 1.57304e-08)
(-2.95297e-07 1.3105e-09 1.82095e-07)
(-9.41964e-08 3.18871e-08 5.35668e-08)
(-9.67506e-08 5.85314e-08 5.01456e-08)
(-7.90136e-08 6.6776e-08 3.47681e-08)
(-9.24274e-07 4.77575e-07 2.46399e-08)
(1.17978e-07 -7.70206e-07 -3.76614e-07)
(2.49025e-05 -2.4439e-05 -5.54407e-06)
(2.30444e-06 -1.23823e-06 -2.84742e-07)
(2.46314e-05 -5.64472e-06 -9.7514e-06)
(8.98267e-06 5.61944e-06 -8.08106e-06)
(3.48782e-07 1.64569e-06 -8.42613e-07)
(-2.96079e-08 8.598e-08 -3.67779e-08)
(-3.01651e-09 2.30098e-09 -1.27798e-09)
(-5.27451e-12 1.37833e-13 1.72283e-15)
(-2.03401e-09 -4.49167e-10 4.7875e-10)
(-3.67538e-11 -8.16027e-12 6.67109e-12)
(-4.38398e-11 -4.44598e-12 -2.35332e-12)
(-1.09429e-10 -4.91404e-12 -2.69987e-11)
(-3.72655e-09 -2.6179e-10 -1.27637e-09)
(-4.42547e-10 -1.13958e-10 -1.87083e-10)
(-2.11698e-09 -1.53749e-09 -1.08858e-09)
(1.13656e-11 -1.66386e-11 1.85797e-12)
(3.27743e-09 -9.35539e-10 1.21224e-09)
(3.81199e-09 -3.445e-10 1.68927e-09)
(3.13497e-09 2.13083e-12 2.04537e-09)
(1.56631e-09 2.46355e-10 2.19179e-09)
(1.28507e-12 2.05911e-13 2.78402e-12)
(4.28425e-11 7.77441e-12 3.09703e-11)
(6.35789e-11 1.44341e-11 -1.73839e-11)
(7.39975e-12 7.02227e-12 -1.57905e-11)
(-7.77453e-14 3.31194e-13 -5.09323e-13)
(-1.25279e-14 1.53865e-14 -1.04858e-14)
(-6.83735e-13 1.15218e-13 6.45296e-13)
(-2.95208e-12 -2.38316e-13 3.37567e-12)
(-9.09091e-12 -2.00953e-14 8.41277e-12)
(-1.67929e-11 -5.06287e-12 2.09225e-11)
(5.65255e-11 -1.66942e-11 -1.21233e-11)
(1.2723e-08 -2.80051e-09 -3.32512e-09)
(4.86303e-09 -1.42376e-09 -8.01342e-10)
(1.83756e-09 -2.52274e-09 2.51692e-09)
(-3.5518e-08 3.7225e-09 2.96006e-08)
(-2.14211e-08 9.85426e-09 1.22944e-08)
(-5.14177e-09 3.71504e-09 2.31467e-09)
(-6.6941e-09 6.3133e-09 2.18373e-09)
(-4.23346e-08 3.47135e-08 1.90638e-09)
(-4.21845e-10 -6.39912e-09 -1.64385e-09)
(8.81678e-07 -2.69585e-06 -4.13721e-07)
(3.75641e-07 -3.52833e-07 -4.66429e-08)
(3.37909e-06 -8.27545e-07 -4.80974e-07)
(1.89248e-06 8.33194e-07 -4.87442e-07)
(8.13031e-08 1.83601e-07 -7.41394e-08)
(-1.59164e-09 5.55341e-09 -3.20393e-09)
(-1.90177e-09 1.37326e-09 -1.31741e-09)
(-4.47946e-12 5.38588e-14 -6.27194e-13)
(-9.181e-14 -2.32838e-14 2.54399e-14)
(-1.83013e-13 -3.04405e-14 3.24077e-14)
(-2.50668e-13 -8.09898e-15 -3.51104e-14)
(-1.78696e-13 2.44267e-15 -6.70055e-14)
(-1.14713e-13 -3.295e-15 -5.91112e-14)
(-4.29487e-13 -7.22556e-14 -2.62539e-13)
(-6.36098e-14 -4.4469e-14 -4.95435e-14)
(3.2014e-15 -7.3719e-15 4.58849e-17)
(4.72489e-14 -2.25728e-14 2.43287e-14)
(6.86122e-12 -1.57345e-12 4.06326e-12)
(3.81986e-12 -4.82668e-13 3.03317e-12)
(1.31985e-12 -6.29108e-14 2.2617e-12)
(1.06193e-13 -4.94759e-14 4.70573e-13)
(7.57053e-13 6.84019e-14 1.00836e-12)
(7.32305e-13 3.61044e-13 -1.54093e-13)
(1.47129e-14 3.98776e-14 -6.01483e-14)
(-7.19126e-18 4.25927e-16 -6.06724e-16)
(5.18408e-19 1.32787e-18 -1.4182e-18)
(7.92446e-18 3.07911e-18 7.58489e-18)
(-5.83218e-17 -8.84682e-17 1.65084e-15)
(-3.08506e-14 -2.16767e-16 6.48602e-14)
(-1.51144e-12 -2.62577e-13 1.60089e-12)
(2.85323e-13 -7.08377e-13 -1.56311e-13)
(3.73938e-09 -1.50865e-09 -1.5634e-09)
(7.79636e-11 -2.3655e-11 -1.75586e-11)
(3.49617e-09 -1.13884e-09 5.91916e-10)
(-1.19276e-09 5.83363e-10 2.54689e-09)
(-3.5523e-09 2.14816e-09 2.56296e-09)
(-2.28732e-11 1.76652e-11 9.18748e-12)
(-3.44671e-10 3.40512e-10 1.48175e-11)
(-9.54056e-10 1.06864e-09 -1.62889e-10)
(-4.39964e-11 -9.11059e-10 2.98334e-10)
(1.09773e-08 -1.14757e-07 1.66064e-08)
(2.81056e-08 -5.69125e-08 4.74872e-09)
(1.70047e-07 -6.65221e-08 6.81486e-09)
(1.44014e-07 5.82952e-08 -1.10229e-08)
(1.00302e-08 1.86901e-08 -7.19469e-09)
(-2.01174e-10 3.03503e-09 -2.12803e-09)
(-8.14592e-13 8.05856e-13 -1.09228e-12)
(-6.57662e-16 -4.4551e-17 -1.43296e-16)
(-1.33961e-17 -3.77029e-18 5.55076e-18)
(-1.20309e-17 -1.10321e-18 2.94937e-18)
(-7.95817e-18 4.29199e-19 -1.32477e-18)
(-7.86112e-18 5.913e-19 -3.58406e-18)
(-3.83411e-18 5.26946e-20 -2.43015e-18)
(-1.58648e-17 -1.97756e-18 -1.25809e-17)
(-7.7215e-19 -4.74385e-19 -9.05661e-19)
(6.96956e-19 -1.31912e-18 -4.57678e-19)
(4.79551e-17 -2.2164e-17 2.17391e-17)
(1.58507e-14 -4.57644e-15 1.13515e-14)
(5.70213e-16 -1.6464e-16 6.63877e-16)
(5.58945e-16 -3.01012e-16 1.67082e-15)
(6.56735e-19 -5.4443e-18 1.84517e-17)
(2.19188e-17 -3.38073e-17 2.01402e-16)
(6.1474e-17 1.15402e-16 1.10271e-17)
(2.74979e-18 1.78116e-17 -1.75275e-17)
(6.31767e-20 1.61976e-19 -1.67611e-19)
(6.07338e-22 4.52912e-22 -4.17079e-22)
(4.2213e-23 9.29112e-24 -1.23338e-24)
(4.89445e-20 -1.03832e-21 5.00388e-20)
(-5.89314e-18 -2.5125e-18 5.38363e-17)
(-6.32855e-15 -1.88029e-15 9.69588e-15)
(-3.60659e-13 -1.67883e-12 -1.86463e-13)
(8.92571e-12 -6.24442e-12 -6.38704e-12)
(2.01013e-11 -7.66297e-12 -7.14561e-12)
(4.25465e-11 -1.07647e-11 1.38043e-12)
(1.39576e-12 2.76231e-12 9.39236e-12)
(-2.34065e-13 1.99835e-13 2.32626e-13)
(-3.06138e-12 2.75674e-12 6.69308e-13)
(-4.18804e-12 4.40073e-12 -1.72123e-12)
(-4.85986e-12 5.0741e-12 -1.63492e-12)
(-4.0563e-10 -1.52489e-10 1.00241e-09)
(3.17289e-10 -2.96786e-09 2.52905e-09)
(1.56627e-09 -5.38993e-09 2.44728e-09)
(3.49852e-09 -3.00609e-09 1.24255e-09)
(3.07152e-09 1.46704e-09 -1.91956e-10)
(1.72479e-09 3.02e-09 -1.42767e-09)
(1.28822e-12 3.47518e-12 -2.92393e-12)
(2.81761e-16 1.59624e-15 -2.5721e-15)
(-1.77137e-18 -4.65797e-19 -1.41732e-19)
(-6.4177e-21 -1.82344e-21 4.80451e-21)
(-3.81217e-22 6.7798e-24 1.81322e-22)
(-8.00205e-23 1.48653e-23 -5.73783e-24)
(-1.45047e-22 2.40911e-23 -6.73302e-23)
(-5.79177e-23 3.6108e-24 -3.98649e-23)
(-4.04885e-22 -3.45812e-23 -3.59976e-22)
(-5.76247e-24 -2.42846e-24 -7.37392e-24)
(3.32919e-25 -8.79375e-24 -9.11194e-24)
(7.29589e-22 -3.39361e-22 2.73051e-22)
(1.228e-19 -2.31904e-20 8.89551e-20)
(9.62596e-20 -1.90274e-20 1.11229e-19)
(4.13391e-19 -3.37459e-19 1.28286e-18)
(2.33979e-24 -7.616e-24 1.95898e-23)
(-3.11873e-21 -6.12906e-21 1.81371e-20)
(-1.15519e-20 9.61729e-21 2.23366e-20)
(3.2435e-22 2.49487e-21 -8.0234e-22)
(1.98465e-23 2.49527e-23 -1.3992e-23)
(1.39414e-25 7.63222e-26 -5.85881e-26)
(1.69236e-26 4.36511e-27 -5.26146e-27)
(3.88809e-24 5.80716e-25 -6.02241e-26)
(6.69894e-23 4.7555e-23 4.12728e-22)
(-8.99052e-21 -9.75324e-22 1.71742e-20)
(-4.24309e-18 -5.78831e-18 4.25993e-18)
(7.11589e-15 -1.01828e-14 -6.30572e-15)
(3.51518e-13 -1.90922e-13 -1.77844e-13)
(3.91461e-13 -1.15687e-13 -5.24256e-14)
(3.01624e-15 5.70741e-16 2.38642e-15)
(-1.43082e-17 2.93138e-17 2.58041e-17)
(-2.42515e-18 2.73987e-18 -3.41283e-19)
(-5.69333e-15 5.59529e-15 -4.55425e-15)
(-8.27484e-14 6.85837e-14 -3.31611e-14)
(-8.41057e-14 1.90542e-14 1.62835e-13)
(1.86244e-14 -1.77634e-13 4.14796e-13)
(3.65905e-14 -9.88333e-14 1.11869e-13)
(2.53867e-12 -3.36138e-12 2.52507e-12)
(1.58192e-12 6.3414e-13 -2.86548e-13)
(4.1788e-14 3.80798e-14 -2.73718e-14)
(4.68911e-17 3.50526e-17 -3.68389e-17)
(3.58834e-21 2.18225e-21 -3.77634e-21)
(-8.30342e-24 -1.47471e-24 2.7751e-24)
(-1.65637e-25 -2.39442e-26 1.44192e-25)
(-3.49325e-27 6.06343e-28 2.92656e-27)
(-2.36969e-28 1.01541e-28 7.19141e-29)
(-1.09883e-27 3.63003e-28 -3.54462e-28)
(-2.56162e-28 3.14227e-29 -1.71644e-28)
(-7.09093e-27 -4.19943e-28 -6.44414e-27)
(-4.97341e-29 -1.41175e-29 -6.28464e-29)
(-1.04619e-28 -1.20133e-28 -2.72377e-28)
(1.10244e-27 -7.3182e-28 -7.95657e-29)
(2.21454e-25 -2.27837e-26 1.78475e-25)
(6.44403e-24 -2.36189e-25 7.50701e-24)
(5.12238e-23 -2.50993e-23 1.04771e-22)
(5.82426e-27 -1.06873e-26 2.53419e-26)
(1.12852e-27 -1.59869e-25 3.94458e-25)
(-7.95529e-27 7.32002e-26 2.37113e-24)
(8.03311e-26 1.07411e-25 7.5966e-26)
(1.76243e-27 1.33113e-27 -6.73814e-29)
(2.00376e-29 9.82413e-30 -7.00867e-30)
(9.88832e-31 3.32994e-31 -5.44863e-31)
(1.89557e-29 5.84787e-30 -1.23382e-29)
(1.31956e-27 1.55254e-27 4.71854e-29)
(-1.46686e-25 9.02549e-26 3.10566e-25)
(-3.11461e-23 -2.90363e-23 7.02969e-23)
(3.9887e-20 -9.46908e-20 -1.76325e-21)
(1.2422e-17 -1.03083e-17 -5.15187e-18)
(5.70455e-17 -2.47713e-17 -1.15607e-17)
(1.27528e-18 -8.64773e-20 1.55496e-19)
(7.27998e-22 6.18711e-21 5.583e-22)
(-2.32624e-22 2.77191e-22 -1.51892e-22)
(-9.56597e-21 8.88789e-21 -6.33161e-21)
(-3.88143e-18 2.85206e-18 -1.33351e-18)
(-8.31731e-18 1.30249e-18 8.76352e-18)
(-5.80498e-19 -4.47339e-18 1.31919e-17)
(2.34342e-19 -3.4259e-19 6.4307e-19)
(7.50366e-17 -4.44527e-17 6.8512e-17)
(9.04398e-17 2.68243e-18 4.18713e-18)
(1.2536e-18 4.76029e-19 -5.48749e-19)
(1.89692e-21 1.24503e-21 -1.80644e-21)
(3.86975e-25 1.38032e-24 -2.30418e-24)
(-3.98754e-27 1.04344e-27 -3.94124e-28)
(-1.72711e-29 2.11976e-30 1.40063e-29)
(-1.19768e-30 4.6856e-31 1.92663e-30)
(-3.38875e-30 3.36584e-30 6.6081e-30)
(-4.56019e-30 2.78347e-30 1.68461e-30)
(-5.97784e-30 1.13872e-30 -2.7393e-30)
(-8.89762e-30 -4.75041e-31 -7.4582e-30)
(-1.14304e-29 -2.78738e-30 -1.34313e-29)
(-7.64607e-30 -4.26304e-30 -1.46978e-29)
(3.13193e-30 -6.44052e-30 -1.56177e-29)
(0 0 0)
(1.85298e-28 3.38236e-29 2.71113e-28)
(8.09668e-28 -2.38563e-28 1.81775e-27)
(6.48274e-31 -6.51306e-31 1.94682e-30)
(1.15259e-30 -1.58668e-30 2.4934e-30)
(1.73318e-29 -4.34949e-30 1.4009e-29)
(2.64041e-30 8.72615e-31 8.37757e-31)
(2.27066e-30 1.33954e-30 3.8744e-31)
(1.28403e-30 8.20294e-31 1.22929e-31)
(4.93714e-31 2.86726e-31 -1.98222e-31)
(1.86435e-30 7.6598e-31 -2.45865e-30)
(2.88805e-31 2.25229e-31 -4.73971e-31)
(7.23114e-32 2.37009e-31 3.05349e-31)
(4.69826e-29 -1.33659e-29 1.85773e-28)
(3.74031e-25 -4.75324e-25 2.10196e-25)
(2.09318e-22 -2.11186e-22 -3.58878e-23)
(5.36067e-21 -3.44467e-21 -1.29537e-21)
(2.55626e-22 -5.13261e-23 -6.14519e-23)
(3.49824e-26 2.01043e-24 -7.7998e-25)
(-2.15476e-26 2.86743e-26 -7.96561e-27)
(-1.61211e-25 1.68875e-25 -4.94276e-26)
(-5.57824e-23 4.38977e-23 -1.36331e-23)
(-2.01736e-22 -3.77666e-23 1.22915e-22)
(-3.71439e-23 -8.18685e-23 1.30687e-22)
(4.04639e-25 -2.28693e-24 4.00972e-24)
(8.14971e-22 -6.47115e-22 1.24133e-21)
(2.30737e-21 -1.01873e-22 5.24788e-22)
(3.92449e-23 1.87345e-23 -2.57502e-23)
(9.28203e-26 1.32161e-25 -1.97164e-25)
(6.12862e-29 2.89341e-28 -3.81426e-28)
(8.33877e-31 2.54975e-30 -1.44351e-30)
(2.47979e-30 1.91366e-30 4.76372e-30)
(2.85699e-30 2.32356e-30 8.77298e-30)
(1.60456e-30 3.77734e-30 1.28754e-29)
(-3.42564e-31 3.9526e-31 1.11523e-30)
(-1.23548e-30 2.40714e-31 2.06952e-31)
(-1.46489e-29 -1.17464e-30 -9.41001e-30)
(-8.00888e-30 -1.88607e-30 -7.92944e-30)
(-7.09455e-30 -2.78117e-30 -9.71572e-30)
(-2.20899e-30 -1.74396e-30 -6.22892e-30)
(4.56427e-31 3.63294e-32 -4.04831e-31)
(5.39914e-31 2.7491e-31 6.872e-31)
(1.93458e-31 3.7013e-32 5.35629e-31)
(1.86511e-31 -6.94862e-32 6.20811e-31)
(1.24675e-30 -9.78592e-31 9.9912e-31)
(8.32176e-31 -1.41984e-31 -1.03498e-32)
(1.85822e-30 3.74337e-31 -1.47883e-31)
(1.29842e-30 5.59561e-31 1.05105e-31)
(2.39826e-30 1.29749e-30 8.95048e-31)
(1.01371e-30 5.53151e-31 8.05776e-31)
(-1.52068e-31 -6.32548e-31 1.53182e-31)
(-2.53708e-31 -3.58105e-31 -4.64718e-31)
(3.15905e-31 3.48926e-32 1.17669e-31)
(1.48345e-30 -4.3636e-32 1.24368e-30)
(6.91699e-30 -4.0461e-30 2.75514e-30)
(1.23607e-27 -1.0487e-27 -4.57372e-29)
(3.49552e-25 -2.63645e-25 -9.72755e-26)
(2.64972e-26 -5.64301e-27 -1.28645e-26)
(-1.41136e-28 4.87054e-28 -8.08802e-29)
(-1.9783e-30 2.74566e-30 1.56529e-32)
(-3.53901e-30 3.80132e-30 -2.67273e-31)
(-4.52918e-28 3.26258e-28 -1.16282e-28)
(-1.2077e-27 -1.31858e-27 7.14377e-28)
(-1.19529e-28 -5.57845e-28 5.54661e-28)
(-3.20925e-29 -1.09632e-28 1.5058e-28)
(-5.71934e-27 -1.25357e-26 2.16853e-26)
(-2.97838e-26 2.58811e-27 1.98243e-26)
(-1.37472e-27 1.71189e-27 -1.62268e-27)
(-1.09781e-29 3.49965e-29 -3.62868e-29)
(1.5435e-30 1.76871e-30 -1.65211e-30)
(7.46916e-30 1.62126e-30 -7.18056e-31)
(2.87786e-30 2.60462e-31 4.51623e-31)
(9.68357e-31 1.51848e-31 4.13108e-31)
(2.64526e-30 1.3836e-30 3.3562e-30)
(2.30866e-31 4.21577e-31 1.35899e-30)
(-3.28805e-30 2.42889e-31 3.73317e-30)
(-1.0078e-29 -2.09443e-30 -4.00132e-30)
(-1.09795e-30 -3.30023e-31 -9.63576e-31)
(-1.47674e-30 -5.85145e-31 -1.70415e-30)
(-8.18389e-30 -4.00585e-30 -1.17575e-29)
(-3.22236e-30 -1.10055e-30 -5.20799e-30)
(-2.7049e-31 9.72373e-31 1.12382e-30)
(4.19866e-31 3.9105e-31 2.08011e-30)
(1.00254e-30 -5.09164e-32 2.12543e-30)
(1.28001e-30 -2.66869e-31 7.41407e-31)
(1.61351e-30 -3.81072e-32 -7.13122e-32)
(4.76311e-30 7.75355e-31 -4.9704e-31)
(1.10901e-29 2.85891e-30 3.4852e-31)
(4.76286e-30 1.58256e-30 1.2044e-30)
(6.44369e-31 2.42798e-31 1.12094e-30)
(-1.37779e-30 -1.05854e-30 1.10647e-30)
(-3.36465e-31 -3.07509e-31 5.84047e-32)
(0 0 0)
(1.45601e-30 -5.72544e-31 4.02647e-31)
(3.25344e-30 -1.2227e-30 7.17644e-31)
(2.24637e-30 -1.18606e-30 7.34883e-32)
(4.62574e-29 -2.48942e-29 -8.67414e-30)
(1.54907e-30 3.35042e-31 -4.95862e-31)
(-9.2604e-31 1.88412e-30 2.44021e-31)
(-1.42786e-29 1.48417e-29 1.45902e-30)
(-3.70434e-30 2.82406e-30 -4.31239e-31)
(-2.53029e-30 8.29437e-31 -1.3976e-30)
(-2.14402e-31 -2.72865e-31 -1.86503e-31)
(-7.26732e-32 -1.08278e-30 7.27068e-31)
(-9.40803e-31 -2.26856e-30 2.79698e-30)
(-1.18298e-30 -6.50847e-31 1.37363e-30)
(-4.88725e-30 7.52672e-31 1.12143e-30)
(-2.25283e-30 1.23887e-30 -7.69654e-31)
(-4.24281e-31 8.19834e-31 -8.44995e-31)
(0 0 0)
(7.05911e-30 1.04221e-31 -1.9872e-31)
(1.35739e-30 1.41336e-31 8.0981e-32)
(5.32745e-31 3.84325e-31 1.78766e-31)
(1.60019e-30 2.85702e-30 2.24186e-30)
(1.81383e-30 2.03126e-30 3.80957e-30)
(5.3031e-31 1.48073e-32 1.29131e-30)
(-8.24304e-32 -2.4575e-31 2.0964e-31)
(0 0 0)
(-2.03673e-30 -8.70016e-31 -2.36465e-30)
(-3.5044e-30 -1.36984e-30 -3.87982e-30)
(-8.56912e-31 -2.65975e-31 -7.85625e-31)
(-1.41789e-30 -1.02016e-31 -4.77225e-31)
(-8.88992e-32 1.12462e-31 5.85053e-31)
(-1.02663e-31 -8.35553e-32 -5.94815e-32)
(1.33934e-30 -9.282e-32 -4.78522e-31)
(2.6079e-30 -3.60481e-32 -7.18081e-31)
(3.43865e-30 2.4937e-31 -6.35098e-31)
(2.3891e-30 8.92824e-31 -5.37354e-32)
(4.89067e-31 8.08528e-31 4.24809e-31)
(-1.7392e-30 1.30057e-30 2.74377e-30)
(-5.00673e-31 -1.56458e-31 4.84839e-31)
(-8.11e-31 -9.65464e-31 5.46027e-31)
(-9.18632e-32 -8.77928e-31 2.32972e-32)
(2.94669e-30 -2.09913e-30 -4.96571e-31)
(8.17344e-31 -2.26774e-31 4.7465e-34)
(9.91984e-31 -2.6221e-31 9.82e-32)
(4.71556e-30 -1.1426e-30 6.81171e-31)
(4.42621e-31 2.31886e-31 4.0723e-31)
(-2.87007e-30 2.82169e-30 1.17154e-30)
(-3.54291e-30 2.34086e-30 -3.27745e-31)
(-1.61815e-30 8.56526e-31 -6.67641e-31)
(-4.32057e-31 1.00034e-31 -4.3717e-31)
(-6.21202e-31 -1.21149e-30 -1.86956e-30)
(6.17665e-31 -4.6119e-30 2.01567e-31)
(-6.31255e-31 -2.34812e-30 1.88824e-30)
(-1.37476e-30 -6.55535e-31 1.63783e-30)
(-5.81706e-31 3.09938e-31 4.84161e-31)
(9.50926e-31 1.69676e-30 5.76597e-31)
(4.45988e-30 1.05921e-30 4.44372e-31)
(1.31914e-29 1.13827e-30 1.08647e-30)
(2.83876e-30 9.60625e-31 -2.23169e-31)
(-1.10842e-30 2.07738e-30 -1.11563e-30)
(-1.28172e-30 1.09236e-30 -3.18999e-31)
(-2.65264e-30 3.09199e-30 1.61108e-30)
(8.95592e-31 1.55643e-30 3.744e-30)
(1.3811e-30 5.04083e-32 1.90394e-30)
(4.54241e-30 -1.59964e-30 4.1203e-30)
(3.57449e-30 -3.96023e-30 8.27367e-31)
(-3.67129e-30 -3.61372e-30 -7.221e-30)
(-1.14603e-29 -4.80813e-30 -1.42564e-29)
(-9.1776e-31 -2.87918e-31 -7.68726e-31)
(-3.19401e-30 -7.92265e-31 -1.58616e-30)
(-8.44096e-31 -1.6414e-31 -1.29413e-31)
(-7.93794e-31 -4.27428e-31 -8.00835e-31)
(1.51564e-31 -1.9831e-31 -4.89394e-31)
(1.94615e-30 -2.17414e-31 -1.64231e-30)