/*--------------------------------*- C++ -*----------------------------------*\
| =========                 |                                                 |
| \\      /  F ield         | OpenFOAM: The Open Source CFD Toolbox           |
|  \\    /   O peration     | Version:  5.0                                   |
|   \\  /    A nd           | Web:      www.OpenFOAM.org                      |
|    \\/     M anipulation  |                                                 |
\*---------------------------------------------------------------------------*/
FoamFile
{
    version     2.0;
    format      ascii;
    class       volVectorField;
    location    "50.4676134421789371";
    object      TU;
}
// * * * * * * * * * * * * * * * * * * * * * * * * * * * * * * * * * * * * * //

dimensions      [0 1 -1 1 0 0 0];

internalField   nonuniform List<vector> 
60000
(
(-0.000969113 -0.0002317 -0.00578321)
(0.00292224 -0.000306781 -0.00524518)
(0.00610426 -0.000268959 -0.00357209)
(0.00639428 -0.000106154 -0.000726631)
(0.00354002 1.7292e-05 0.00208332)
(0.000311375 1.25756e-05 0.00368302)
(-0.00146095 3.02884e-05 0.00404055)
(-0.00292042 2.43113e-05 0.00282762)
(-0.00489755 -1.90885e-06 0.000299122)
(-0.00593043 2.09581e-05 -0.00243698)
(-0.00510001 -6.53072e-05 -0.00393616)
(-0.00298949 -0.000135029 -0.00372636)
(-0.00156875 -0.000107371 -0.0024852)
(-0.00187661 -0.000100358 -0.00110186)
(-0.00263396 -0.000164812 0.000473122)
(-0.00236149 -0.000220772 0.00267616)
(-0.00167828 -4.207e-05 0.00504157)
(-0.00253677 0.000160038 0.00676528)
(-0.0054664 0.00031183 0.00837841)
(-0.0100081 0.000302671 0.00841899)
(-0.0152469 0.000265484 0.00555775)
(-0.0196112 0.00010027 0.00102734)
(-0.0212883 -8.01911e-05 -0.00311096)
(-0.022058 -6.32787e-05 -0.0056199)
(-0.0246758 0.000169246 -0.0058959)
(-0.0280654 0.000341551 -0.00514671)
(-0.0292311 0.000289174 -0.00492039)
(-0.0255614 0.000104428 -0.00564492)
(-0.0172546 -6.70945e-05 -0.00558648)
(-0.00974976 -0.000157739 -0.00250684)
(-0.00867289 -0.00018915 0.00242032)
(-0.0110754 -0.000251916 0.00590041)
(-0.0125533 -0.00028723 0.00762445)
(-0.0108797 -0.000244252 0.00917919)
(-0.00485517 -0.000132375 0.0109405)
(0.00155042 1.40821e-05 0.00964218)
(0.000307631 -6.17977e-05 0.00337553)
(-0.00411498 -0.000135352 -0.00244902)
(-0.00543269 -0.000141466 -0.0050341)
(-0.00400168 -0.000173355 -0.00574953)
(-0.013368 -0.00189917 -0.0150925)
(-0.00170815 -0.00178908 -0.00971798)
(0.00769022 -0.000809897 -0.00333157)
(0.0112746 0.000350803 0.00224734)
(0.00816922 0.000828157 0.00756909)
(0.0014865 0.000281907 0.0110847)
(-0.0038319 -5.54037e-05 0.0096901)
(-0.00814377 -0.000154053 0.00307248)
(-0.0153511 1.63484e-05 -0.006936)
(-0.0226017 -0.000409629 -0.0152289)
(-0.0245379 -0.00115425 -0.0179883)
(-0.0191196 -0.00141942 -0.0145423)
(-0.01081 -0.000653835 -0.00699005)
(-0.00689478 0.000244206 0.000886072)
(-0.00906405 0.000428978 0.00750524)
(-0.013506 0.000544701 0.0135136)
(-0.0175566 0.00110174 0.0179265)
(-0.0221937 0.00154703 0.019965)
(-0.0269698 0.000813982 0.0215676)
(-0.0321777 -0.000723864 0.0191007)
(-0.0399819 -0.00155206 0.00703341)
(-0.0523377 -0.00138303 -0.0116286)
(-0.0644039 -0.000488405 -0.0250933)
(-0.0768373 0.00164524 -0.0270056)
(-0.0932463 0.00408177 -0.0206873)
(-0.109585 0.00534506 -0.0125523)
(-0.117641 0.00426389 -0.0077514)
(-0.109937 0.00171038 -0.00770079)
(-0.0834505 -0.000563142 -0.00876855)
(-0.0500086 -0.00109288 -0.00450531)
(-0.0338972 -0.00036622 0.00627031)
(-0.0384295 -0.00012532 0.016502)
(-0.0478658 -0.000741231 0.0215842)
(-0.0503765 -0.00133579 0.0238156)
(-0.0376041 -0.00155914 0.0253111)
(-0.0112026 -0.000540986 0.0212564)
(0.00226524 0.000586405 0.00696517)
(-0.00798834 0.000269214 -0.00870497)
(-0.0194347 -0.000647748 -0.01685)
(-0.0207679 -0.00149386 -0.017929)
(-0.0100905 -0.00121116 -0.00714678)
(-0.00574688 -0.00138851 -0.00466479)
(-0.00165981 -0.000674476 -0.00114208)
(0.000819321 0.000222847 0.001186)
(0.00211053 0.000632597 0.00241847)
(0.00169406 0.000369711 0.00396538)
(-7.47598e-05 6.85942e-05 0.0043164)
(-0.00204842 -0.000138368 0.00200405)
(-0.00490235 8.08502e-05 -0.00253881)
(-0.00908843 -0.000134683 -0.00723649)
(-0.0120677 -0.000654405 -0.00944396)
(-0.0111746 -0.00114074 -0.00826792)
(-0.00683422 -0.000833264 -0.00441939)
(-0.00322157 -2.49451e-05 -9.66182e-05)
(-0.00334954 0.000463665 0.00303396)
(-0.00592091 0.000841862 0.00521832)
(-0.00846719 0.00135648 0.00690886)
(-0.00965689 0.0017321 0.00793348)
(-0.00929557 0.000764823 0.00889856)
(-0.00904869 -0.00144193 0.00770072)
(-0.0106416 -0.0028888 0.00118752)
(-0.0164953 -0.00244967 -0.0104272)
(-0.0242293 -0.000717962 -0.0193817)
(-0.030744 0.00192802 -0.0190445)
(-0.0368506 0.00416352 -0.0126164)
(-0.0422652 0.00505943 -0.00528741)
(-0.0454936 0.00396942 -0.000391553)
(-0.0443381 0.00163515 0.00123989)
(-0.0357058 -0.000671697 0.000624743)
(-0.0216025 -0.00146208 0.000297126)
(-0.0116703 -0.000654434 0.00226836)
(-0.0110003 0.000215545 0.00553829)
(-0.0153344 0.000104202 0.00808628)
(-0.0193894 -0.000497832 0.00937394)
(-0.018451 -0.00109198 0.00995316)
(-0.00975778 -0.000855917 0.00855823)
(-0.000457056 0.000206653 0.00416324)
(-0.00065432 0.000698791 -0.0013035)
(-0.00693581 0.0003404 -0.00547973)
(-0.0110037 -0.00044895 -0.00754605)
(-0.00144485 -0.000295671 -0.0015708)
(-0.00077886 -0.000414784 -0.00120307)
(-1.02623e-06 -0.000213425 -0.000363049)
(0.000341389 5.03982e-05 0.000235728)
(0.000476454 0.000131166 0.000335268)
(0.000512313 8.43228e-05 0.000417532)
(0.000456462 3.56898e-05 0.000613566)
(0.000224943 -2.59165e-05 0.000529303)
(-0.000187395 5.31633e-06 -0.000164267)
(-0.000895519 4.69108e-06 -0.00119166)
(-0.00165705 -0.000130877 -0.00196894)
(-0.00156804 -0.00031921 -0.00187536)
(-0.000531101 -0.000274355 -0.000972859)
(0.00024682 -4.37364e-05 -2.62009e-05)
(0.000134019 8.52363e-05 0.000407319)
(-0.000272579 0.000132026 0.000542547)
(-0.000755269 0.000248756 0.000864766)
(-0.00103015 0.000458784 0.00151145)
(-0.000118245 0.000265153 0.00238256)
(0.0010299 -0.000793894 0.00238155)
(0.000514045 -0.00142918 0.000252061)
(-0.00113529 -0.000963516 -0.002735)
(-0.00257993 -0.000193799 -0.00424425)
(-0.0031061 0.000499742 -0.00356748)
(-0.00338146 0.000920398 -0.002095)
(-0.00365763 0.00103202 -0.000615112)
(-0.0039649 0.000762728 0.000487553)
(-0.00438174 0.00018729 0.00122921)
(-0.00348231 -0.000640975 0.00150112)
(-0.000355058 -0.000991085 0.00119868)
(0.00203121 -0.000545584 0.00101808)
(0.00184719 -4.3019e-05 0.00118715)
(0.000536029 6.78509e-05 0.00139838)
(-0.000535339 -6.60594e-05 0.00165156)
(-0.00108204 -0.000294393 0.00211856)
(-4.85476e-05 -0.000356288 0.00213353)
(0.00161879 -3.6412e-05 0.00115693)
(0.00140077 0.000212264 8.63157e-05)
(9.33309e-05 0.000189505 -0.000623793)
(-0.00115915 -1.69145e-06 -0.00125138)
(-8.81026e-05 -2.36444e-05 -0.000137564)
(-3.10372e-05 -2.72326e-05 -8.25396e-05)
(-2.11284e-06 2.85328e-06 6.72427e-06)
(-4.88424e-05 -1.32936e-06 -4.00124e-06)
(-0.000133282 -2.61969e-05 -5.26828e-05)
(-0.000241788 -3.19359e-05 -0.000105752)
(-0.000218355 -1.42467e-05 -0.00014595)
(-4.36417e-05 3.94327e-07 -3.92926e-05)
(2.85737e-05 3.42989e-08 1.40944e-05)
(-1.31198e-05 4.98145e-06 -9.28996e-05)
(-0.000178874 -1.85108e-05 -0.0003444)
(-0.000214622 -6.60596e-05 -0.000361075)
(3.08783e-06 3.57104e-06 1.10524e-05)
(-0.000180673 4.56699e-05 7.04316e-05)
(-0.000342343 -7.16126e-05 -0.000306318)
(9.91538e-05 -0.000183895 -0.0006154)
(0.000346775 -0.000161136 -0.000477135)
(-7.2527e-05 4.47322e-05 0.000132377)
(0.00047971 0.000128868 0.0010176)
(0.00232094 -0.000594724 0.00160069)
(0.00165627 -0.00102169 0.000413789)
(6.69977e-05 -0.00019033 -0.000323032)
(0.000644417 0.000113408 0.00160353)
(0.00167245 -0.000432294 0.00253378)
(0.00145136 -0.000663506 0.00130468)
(0.000738333 -0.000390724 0.000205604)
(0.000359388 -0.000137526 -9.2606e-05)
(-2.68142e-06 1.47898e-07 1.54264e-06)
(-0.000431562 -0.000206724 0.00040724)
(0.000210822 -0.000511175 0.0005696)
(0.00109147 -0.000312466 0.000390708)
(0.000752497 -5.02259e-05 0.0001946)
(7.48424e-05 7.72559e-07 2.6448e-05)
(-0.000146934 9.61992e-07 -9.98485e-05)
(1.59117e-05 -3.1959e-06 2.41651e-05)
(0.000213887 -6.90754e-05 0.000373798)
(0.000382393 -2.45916e-05 0.000265064)
(6.07568e-05 5.66146e-06 1.45323e-05)
(-6.27379e-05 -1.54282e-05 7.95431e-06)
(-4.90091e-06 4.96571e-06 -3.1579e-05)
(2.78169e-05 3.70033e-06 5.11173e-05)
(5.11585e-05 3.35253e-05 0.000100331)
(2.59523e-05 5.32172e-05 0.000142877)
(-5.9061e-05 1.09775e-05 5.13286e-05)
(-0.000130736 -3.09248e-05 -3.53448e-05)
(-0.000230726 -3.58177e-05 -7.89452e-05)
(-0.000291095 -2.04933e-05 -0.000138223)
(-0.000206244 -4.19299e-06 -0.000140489)
(-8.60897e-05 -9.49573e-07 -4.93475e-05)
(-2.68239e-05 -2.70195e-06 1.07511e-05)
(-3.28845e-06 -8.6901e-07 -3.09754e-05)
(-5.94821e-05 -2.57974e-05 -0.000134064)
(3.62092e-05 3.02993e-05 8.6475e-05)
(-4.82336e-05 0.000112095 0.000185136)
(-0.000196174 -3.59412e-05 -0.000242546)
(0.000220192 -0.000220833 -0.000647365)
(0.000582369 -0.000250761 -0.000639247)
(0.000213386 -9.37527e-05 -0.000226744)
(0.000149745 8.06445e-05 0.000397201)
(0.00244536 -0.000479645 0.00113307)
(0.00266919 -0.00113569 0.000654622)
(0.000104302 -0.000103933 -9.73286e-05)
(0.000845679 0.000295417 0.00258495)
(0.0024375 -0.000707166 0.00378615)
(0.00158095 -0.000985262 0.00171124)
(0.000462772 -0.000421214 0.000205358)
(0.000131958 -9.3217e-05 -4.29786e-05)
(0.000179848 -2.66169e-05 -0.000108092)
(4.27756e-05 1.43448e-05 -2.50258e-05)
(-0.000259641 -0.000213479 0.000177935)
(1.49305e-05 -0.000247427 0.000188156)
(0.00017342 -5.27541e-05 6.51744e-05)
(-0.000190021 9.29797e-06 -4.18893e-05)
(-0.00053945 6.94375e-06 -0.000132882)
(-0.000466959 2.8873e-05 -0.000208843)
(-0.000103306 1.73328e-05 -9.19021e-05)
(-1.88585e-06 2.48965e-07 -1.93265e-06)
(-0.000189064 -1.54294e-05 -0.000105499)
(-0.000284049 -7.18121e-05 -7.45687e-05)
(-7.54199e-05 -4.28948e-05 2.35338e-05)
(-7.36847e-06 -8.77671e-06 1.24609e-05)
(2.07853e-05 1.38424e-05 4.2653e-05)
(2.87426e-05 3.08708e-05 7.97544e-05)
(8.66932e-06 1.33598e-05 5.31391e-05)
(-1.52042e-05 -8.98086e-06 6.28759e-06)
(-5.15123e-05 -1.43644e-05 -1.75111e-05)
(-0.00011063 -9.89976e-06 -4.63851e-05)
(-0.000123721 -5.13534e-06 -7.58101e-05)
(-8.87154e-05 -2.8297e-06 -5.05691e-05)
(-5.11915e-05 -2.79378e-06 -6.58302e-06)
(-2.92328e-06 1.52796e-08 2.79212e-06)
(-8.78799e-08 -1.41293e-05 -6.76853e-05)
(-2.61593e-06 -3.73984e-06 -9.21076e-06)
(3.21638e-05 7.0564e-05 9.68491e-05)
(6.07477e-05 1.48013e-05 -0.000103794)
(0.000263431 -0.000121905 -0.000361878)
(0.000469884 -0.00018767 -0.000436983)
(0.000381659 -0.000147971 -0.000287734)
(-1.83362e-05 2.3922e-05 6.45246e-05)
(0.00171387 -0.000371248 0.000432426)
(0.00327835 -0.0011233 0.000598779)
(0.000354874 -0.000214944 -0.000107335)
(0.00030124 0.000360941 0.00206252)
(0.00163554 -0.000603116 0.00296876)
(0.000691628 -0.000701303 0.00101537)
(0.000141932 -0.000235064 9.53772e-05)
(9.42989e-06 -9.58299e-06 -2.50139e-06)
(-6.54587e-06 1.5102e-06 3.06559e-06)
(8.6301e-05 2.25992e-05 -3.90986e-05)
(1.92579e-05 9.1274e-06 -6.75464e-06)
(-0.000178047 -9.15953e-05 4.59182e-05)
(-0.000109537 -7.46082e-05 3.0512e-05)
(5.22656e-06 -5.59614e-06 2.2802e-06)
(-0.000160024 2.11551e-05 -1.70784e-05)
(-0.00034972 2.6985e-05 -6.28813e-05)
(-0.000226342 2.02572e-05 -8.61861e-05)
(-5.45245e-05 5.23392e-06 -3.97375e-05)
(-6.9716e-05 -2.99623e-06 -6.3451e-05)
(-0.000124662 -3.40409e-05 -8.53153e-05)
(-8.29082e-05 -3.99936e-05 -3.98337e-05)
(-1.46981e-05 -8.9213e-06 -1.05159e-05)
(-3.20037e-06 1.39025e-06 9.2235e-06)
(2.72237e-06 8.62644e-06 2.34564e-05)
(3.42973e-06 4.50423e-06 1.99754e-05)
(3.20987e-06 -1.35411e-06 5.15855e-06)
(2.41743e-06 -1.79634e-06 2.33196e-07)
(-4.32806e-06 -8.82918e-07 -4.8167e-06)
(-2.11028e-05 -8.32311e-07 -1.82078e-05)
(-3.01674e-05 -1.46072e-06 -2.06264e-05)
(-2.50797e-05 -9.60483e-07 -5.90602e-06)
(1.09816e-05 -2.94156e-08 -2.51471e-06)
(3.42794e-05 -9.83568e-06 -3.64308e-05)
(2.42965e-06 -1.07576e-05 -1.94283e-05)
(1.68181e-05 3.27637e-05 2.99234e-05)
(9.03325e-05 1.54137e-05 -5.45897e-05)
(0.000151576 -4.50804e-05 -0.000134947)
(0.000172396 -6.88737e-05 -0.000137857)
(0.000310698 -0.000134965 -0.000194756)
(4.63582e-05 -1.68595e-05 -1.52845e-05)
(0.000674748 -0.000249249 -2.08679e-05)
(0.00260549 -0.000913066 0.000214495)
(0.00047227 -0.000212813 -6.12287e-05)
(-0.000366645 0.000329614 0.00122462)
(0.000467192 -0.000375756 0.00157845)
(0.000176815 -0.000385118 0.000423286)
(4.62133e-05 -0.000112095 3.86134e-05)
(2.53813e-05 -2.62336e-05 -9.27902e-07)
(-7.41192e-06 1.78446e-06 1.81398e-06)
(-9.92615e-06 -2.12831e-06 3.49187e-06)
(2.44981e-05 9.25754e-06 -7.49511e-06)
(7.77873e-06 2.40761e-06 -1.10079e-06)
(-7.43273e-05 -1.85204e-05 1.75365e-07)
(-6.52026e-05 -2.08676e-05 -7.32711e-06)
(-6.32465e-07 -2.36177e-06 -8.19495e-07)
(-5.59072e-05 1.40493e-05 -3.02012e-06)
(-0.000111145 1.27923e-05 -2.27139e-05)
(-6.09477e-05 4.06477e-06 -2.43309e-05)
(-2.99479e-05 -3.07521e-07 -2.16028e-05)
(-2.99545e-05 -7.02356e-06 -3.21593e-05)
(-2.84401e-05 -1.41054e-05 -3.1444e-05)
(-5.05699e-06 -2.69789e-06 -6.71892e-06)
(-5.02216e-06 -1.06237e-06 -9.16577e-07)
(-4.22116e-06 1.01954e-06 4.71229e-06)
(-2.35367e-06 4.49433e-07 5.30766e-06)
(2.78531e-07 -4.20843e-07 1.00366e-06)
(5.12386e-08 -1.50083e-08 8.3219e-09)
(9.60152e-08 -2.04849e-09 -7.18465e-09)
(2.29387e-06 1.43839e-07 -1.45165e-06)
(-1.60653e-06 -6.43076e-08 -4.88646e-06)
(-3.78164e-06 -1.92467e-08 -1.33613e-06)
(1.61454e-05 -3.66621e-07 -1.4857e-06)
(4.77781e-05 -7.4489e-06 -1.77951e-05)
(1.27401e-05 -1.0177e-05 -1.12492e-05)
(8.46916e-06 1.8523e-05 5.30888e-06)
(6.99614e-05 7.17396e-06 -3.93052e-05)
(6.10641e-05 -1.67468e-05 -4.18669e-05)
(-5.78444e-06 2.64296e-06 3.78153e-06)
(0.000119156 -6.97907e-05 -6.45897e-05)
(8.7873e-05 -3.37886e-05 -7.61633e-06)
(0.000106293 -0.00011553 -6.69964e-05)
(0.00121666 -0.000606932 -6.17843e-05)
(0.000352362 -0.000149079 -3.58176e-05)
(-0.00060402 0.000213982 0.000523278)
(-9.72527e-05 -0.000206738 0.000624559)
(1.53855e-05 -0.000209194 0.000159451)
(1.70988e-05 -5.05926e-05 1.72566e-05)
(6.17576e-06 -5.72384e-06 1.26327e-06)
(5.17293e-06 -9.83591e-07 -3.28161e-07)
(-2.86387e-06 -5.74073e-07 7.68803e-07)
(-2.86397e-06 -8.58628e-07 7.4679e-07)
(7.20824e-06 1.43244e-06 -5.21253e-07)
(4.95166e-06 6.22702e-07 4.73702e-07)
(-1.4771e-05 -2.31346e-06 -3.03901e-06)
(-1.82022e-05 -6.27259e-06 -5.67394e-06)
(-2.65253e-08 -1.56697e-06 -5.46746e-07)
(-1.41426e-05 4.41248e-06 -2.18774e-06)
(-2.44251e-05 2.80313e-06 -7.18898e-06)
(-1.34894e-05 2.66056e-07 -6.21309e-06)
(-8.13444e-06 -8.60973e-07 -6.88355e-06)
(-7.02048e-06 -2.66638e-06 -1.0799e-05)
(-1.9968e-06 -7.63484e-07 -3.4312e-06)
(-3.00468e-06 -6.84352e-07 -1.72118e-06)
(-2.18449e-06 -1.2271e-07 7.51311e-07)
(-1.16027e-06 -2.31173e-07 1.42336e-06)
(4.96322e-08 -8.52955e-07 1.41925e-06)
(7.34898e-08 -4.12244e-08 1.78804e-08)
(-5.60974e-09 5.08331e-10 1.23836e-09)
(1.352e-08 5.94401e-10 -5.29677e-09)
(1.70401e-06 5.74673e-08 -1.28234e-06)
(-9.07535e-07 2.06732e-07 -1.23748e-06)
(6.19448e-06 -5.91389e-07 -5.03238e-07)
(3.53902e-05 -5.22045e-06 -8.49249e-06)
(1.19476e-05 -4.78389e-06 -3.13201e-06)
(8.1832e-07 7.09165e-06 -2.6242e-06)
(3.62635e-05 1.19279e-06 -2.25458e-05)
(2.76023e-05 -8.97712e-06 -1.57635e-05)
(-2.24281e-05 1.31333e-05 1.173e-05)
(1.13138e-05 -9.31615e-06 -5.16068e-06)
(3.76618e-05 -2.28147e-05 -3.48106e-06)
(5.55192e-07 -2.26859e-05 -1.19325e-05)
(0.000291228 -0.000307232 -7.30576e-05)
(0.000177017 -9.59046e-05 -2.16435e-05)
(-0.00041109 0.00010746 0.000148876)
(-0.000202711 -0.000107481 0.000173388)
(-2.39731e-05 -9.56913e-05 5.07902e-05)
(6.59379e-06 -2.14541e-05 9.21367e-06)
(3.6156e-06 -2.85621e-06 1.57346e-06)
(9.79807e-09 -1.08849e-09 6.51389e-10)
(2.94684e-06 6.36819e-07 -6.85974e-07)
(-6.83495e-08 -1.6422e-08 1.5462e-08)
(-2.44802e-07 -2.82299e-08 -3.53147e-09)
(2.13475e-07 9.3231e-09 4.6535e-08)
(5.33705e-06 3.60093e-07 1.81897e-06)
(-9.87971e-08 -1.99979e-08 -4.0921e-08)
(-2.35726e-06 -1.55458e-06 -1.18985e-06)
(1.1805e-07 -1.86549e-07 1.70629e-08)
(-3.51482e-06 1.07316e-06 -1.28838e-06)
(-3.44601e-06 3.5164e-07 -1.49866e-06)
(-3.92068e-06 6.58289e-09 -2.5066e-06)
(-2.26781e-06 -3.44579e-07 -3.10422e-06)
(-2.77309e-08 -3.9538e-09 -6.2072e-08)
(-1.97981e-07 -3.61895e-08 -1.71925e-07)
(-2.66903e-07 -5.3057e-08 3.9411e-08)
(-6.88422e-08 -4.78375e-08 1.13787e-07)
(2.75348e-09 -1.66602e-08 2.72802e-08)
(1.79478e-09 -2.46002e-09 2.05095e-09)
(-1.30537e-08 4.37452e-09 9.95792e-09)
(-3.17388e-08 -2.06097e-09 3.78256e-08)
(7.51349e-08 2.3226e-10 -7.39203e-08)
(7.79466e-08 1.36064e-08 -8.5917e-08)
(8.12577e-08 -2.76587e-08 -1.21926e-08)
(7.06166e-06 -1.5437e-06 -1.87987e-06)
(7.5136e-06 -2.13209e-06 -1.31939e-06)
(-1.69468e-06 1.48832e-06 -1.04726e-06)
(1.21301e-05 -8.89957e-07 -1.05188e-05)
(1.22285e-05 -5.46939e-06 -7.11025e-06)
(-5.22711e-06 3.69731e-06 2.40689e-06)
(-5.40734e-06 5.07025e-06 1.79248e-06)
(6.73975e-06 -6.19559e-06 -5.86754e-07)
(2.91345e-07 2.4363e-06 6.56432e-07)
(2.91498e-05 -0.000101409 -1.55867e-05)
(5.30877e-05 -5.1242e-05 -6.67082e-06)
(-0.00014995 4.37472e-05 2.05691e-05)
(-0.000113243 -4.33447e-05 2.78242e-05)
(-1.56843e-05 -3.15609e-05 1.27063e-05)
(1.00695e-06 -4.53431e-06 2.54401e-06)
(2.70191e-06 -2.03093e-06 1.91793e-06)
(1.24637e-07 -4.24044e-09 2.0372e-08)
(-1.25451e-08 -3.08951e-09 3.23458e-09)
(1.01616e-08 1.94227e-09 -2.3677e-09)
(-1.78428e-08 -8.09219e-10 -1.57403e-09)
(-1.28099e-08 2.0476e-10 -4.37388e-09)
(-8.22472e-09 -8.30833e-11 -4.06403e-09)
(2.46217e-08 3.22998e-09 1.48321e-08)
(-2.50403e-09 -1.26615e-09 -1.85146e-09)
(3.28953e-10 -2.27892e-09 -3.96465e-10)
(5.56524e-09 -3.18055e-09 2.76087e-09)
(-8.62524e-08 2.20052e-08 -5.02439e-08)
(-7.11149e-08 9.49207e-09 -5.29518e-08)
(2.4924e-08 -1.46995e-09 3.72281e-08)
(-3.82966e-09 2.06371e-09 -1.77298e-08)
(-2.07662e-08 -8.83953e-10 -3.31402e-08)
(-2.76534e-08 -1.12333e-08 7.36382e-10)
(-2.31047e-09 -4.32962e-09 6.45496e-09)
(6.69793e-12 -4.47109e-10 6.57122e-10)
(-6.00412e-12 -2.37598e-11 2.70428e-11)
(-2.54987e-11 -1.63141e-11 -1.29133e-11)
(4.19728e-11 -3.61184e-11 9.59303e-10)
(-2.15419e-09 -2.8634e-11 5.54458e-09)
(2.29008e-08 2.85565e-09 -2.78224e-08)
(-9.92517e-09 3.20823e-08 4.88784e-09)
(5.12237e-06 -2.09612e-06 -2.16455e-06)
(8.92212e-07 -2.70732e-07 -2.10364e-07)
(-4.95866e-06 1.60449e-06 -7.12726e-07)
(1.41555e-06 -6.96774e-07 -3.32378e-06)
(4.99139e-06 -3.00778e-06 -3.64832e-06)
(3.23775e-07 -2.47246e-07 -1.37955e-07)
(-4.2472e-07 4.05598e-07 3.9607e-08)
(1.19476e-06 -1.35869e-06 2.21973e-07)
(7.00806e-08 1.14194e-06 -3.87417e-07)
(1.72763e-06 -1.98917e-05 3.17103e-06)
(9.66846e-06 -2.05353e-05 1.76833e-06)
(-2.78208e-05 1.30644e-05 -1.28841e-06)
(-2.91725e-05 -1.00561e-05 1.84464e-06)
(-5.73951e-06 -9.75482e-06 3.66552e-06)
(2.13345e-07 -4.19406e-06 2.90092e-06)
(4.37592e-08 -4.4961e-08 6.00259e-08)
(1.32732e-09 6.47951e-11 3.30566e-10)
(1.33927e-10 3.89878e-11 -5.31023e-11)
(-4.77934e-11 -6.17933e-12 1.57051e-11)
(7.28813e-11 -3.10678e-12 6.81873e-12)
(5.55444e-11 -4.6585e-12 2.27602e-11)
(4.52227e-11 -1.57567e-12 2.72733e-11)
(-1.12239e-10 -9.4077e-12 -8.59941e-11)
(4.14169e-12 1.77836e-12 4.3871e-12)
(-4.17127e-12 2.00908e-11 1.22919e-11)
(1.16951e-10 -6.29901e-11 4.47767e-11)
(-2.96412e-09 9.09774e-10 -1.99507e-09)
(-5.53437e-10 1.50431e-10 -5.81385e-10)
(-6.73097e-11 3.03771e-11 -1.62895e-10)
(-2.70333e-12 1.15618e-11 -3.98112e-11)
(-3.02977e-11 6.76307e-11 -3.32062e-10)
(-1.05197e-10 -1.33116e-10 -9.26705e-11)
(-1.55978e-11 -8.19993e-11 7.75674e-11)
(-2.49868e-12 -7.79891e-12 8.20936e-12)
(-3.87663e-13 -3.54782e-13 3.35676e-13)
(-2.98546e-14 -8.89743e-15 3.95234e-15)
(1.6487e-12 6.78868e-14 1.13391e-12)
(-3.16138e-12 3.83245e-12 -9.78183e-11)
(-9.3222e-10 -2.41754e-10 1.75465e-09)
(1.05611e-08 2.12684e-08 -4.9032e-09)
(8.16472e-08 -6.62907e-08 -6.37271e-08)
(2.0397e-07 -8.23381e-08 -8.17151e-08)
(-3.1632e-07 8.57484e-08 1.47077e-08)
(-4.22881e-08 -1.93792e-08 -9.40246e-08)
(2.48021e-08 -2.1655e-08 -2.70062e-08)
(-6.27152e-08 5.56767e-08 1.97935e-08)
(-5.43099e-08 5.61186e-08 -1.83826e-08)
(-1.97414e-08 2.13502e-08 -1.00094e-08)
(6.013e-07 1.56219e-07 -1.37794e-06)
(3.10583e-07 -3.0949e-06 2.7909e-06)
(1.71871e-06 -6.07548e-06 2.81682e-06)
(-3.41089e-06 3.29073e-06 -1.33771e-06)
(-2.91553e-06 -1.06133e-06 6.41714e-08)
(-2.42791e-06 -4.14278e-06 1.93896e-06)
(-4.81508e-08 -1.27796e-07 1.05881e-07)
(-3.44844e-10 -1.63823e-09 2.55473e-09)
(3.79226e-11 8.48161e-12 7.83373e-12)
(2.43853e-12 7.61287e-13 -1.81689e-12)
(2.92057e-13 9.04673e-15 -1.68568e-13)
(-1.59602e-13 2.82538e-14 5.45386e-15)
(-1.49753e-13 2.80626e-14 -5.9817e-14)
(-1.83334e-13 1.69089e-14 -1.18985e-13)
(4.47972e-13 2.11578e-14 3.80406e-13)
(8.42668e-15 2.59226e-15 9.86178e-15)
(-1.80403e-14 -6.36636e-14 -8.66145e-14)
(2.14095e-13 -1.26468e-13 4.48083e-14)
(-5.01837e-12 1.11352e-12 -3.34547e-12)
(-5.0294e-12 8.62409e-13 -5.25602e-12)
(1.14051e-11 -6.88981e-12 2.84311e-11)
(3.39434e-14 -8.02327e-14 2.1517e-13)
(2.41262e-13 7.30136e-13 -2.00433e-12)
(1.0655e-12 -3.90294e-13 -2.6426e-12)
(-3.76091e-14 -7.39806e-13 1.72215e-13)
(-5.59202e-14 -8.18197e-14 4.33486e-14)
(-6.41278e-15 -3.91708e-15 2.77447e-15)
(1.43615e-15 4.3498e-16 -4.64234e-16)
(-2.62279e-14 -4.52087e-15 2.83809e-15)
(1.18641e-13 3.92473e-14 2.21787e-13)
(2.25596e-12 1.31034e-13 -4.83991e-12)
(-1.18862e-11 -1.10823e-11 1.39773e-11)
(5.91456e-10 -1.21181e-09 -5.72193e-10)
(-1.82321e-08 1.10407e-08 1.01545e-08)
(-2.47144e-08 8.10303e-09 5.02996e-09)
(-1.56499e-09 -5.12519e-11 -7.81942e-10)
(5.5029e-11 -1.64294e-10 -1.71659e-10)
(-8.6966e-11 9.97512e-11 -6.04987e-12)
(-1.25564e-09 1.25411e-09 -9.63805e-10)
(-5.49139e-09 4.76839e-09 -3.10384e-09)
(-3.75078e-09 1.70488e-09 4.21074e-09)
(-1.02464e-09 1.7546e-08 -4.40553e-08)
(7.74389e-09 -2.11116e-08 2.45812e-08)
(-3.35262e-08 5.20569e-08 -4.12609e-08)
(-4.09211e-08 -8.59937e-09 2.03535e-09)
(-1.21124e-08 -1.09799e-08 7.77382e-09)
(-3.95254e-10 -2.99499e-10 3.06517e-10)
(-9.61162e-13 -5.92561e-13 9.21803e-13)
(-6.29289e-14 -9.549e-15 1.71822e-14)
(-1.54046e-14 -2.44821e-15 1.32668e-14)
(-1.2354e-15 1.42673e-16 1.09038e-15)
(1.4657e-16 -6.02254e-17 -6.62583e-17)
(2.94117e-16 -1.12178e-16 6.02711e-17)
(4.59422e-16 -7.74533e-17 2.82895e-16)
(-1.52955e-15 -3.40616e-17 -1.31878e-15)
(-0 -0 -0)
(2.66592e-16 2.11073e-16 5.59666e-16)
(8.01444e-17 -8.44958e-17 -6.21374e-17)
(-3.67484e-15 5.90823e-16 -2.49541e-15)
(-3.04845e-14 6.67365e-16 -3.34377e-14)
(9.71016e-14 -3.31053e-14 1.74871e-13)
(4.56017e-16 -6.20448e-16 1.69143e-15)
(-1.63532e-16 1.82023e-15 -4.2639e-15)
(5.76887e-16 1.97091e-15 -2.33393e-14)
(-2.33852e-15 -3.24573e-15 -3.20833e-15)
(-5.43318e-16 -4.31614e-16 -3.06095e-17)
(-5.0934e-17 -2.65542e-17 1.41757e-17)
(0 0 -0)
(4.44503e-17 1.35749e-17 -2.82874e-17)
(-3.56693e-16 -2.6463e-16 1.22343e-16)
(-2.47059e-15 2.49209e-15 6.09065e-15)
(2.63622e-14 1.32782e-14 -5.74995e-14)
(3.58473e-13 -1.31945e-12 2.12758e-13)
(-4.94997e-11 4.67227e-11 2.09852e-11)
(-1.88763e-10 9.17215e-11 4.68858e-11)
(-2.62142e-11 4.04899e-12 -1.30696e-12)
(-7.30157e-13 -1.31638e-12 -3.21044e-13)
(-1.5179e-13 2.02373e-13 -9.4166e-14)
(-2.39822e-12 2.27744e-12 -1.61143e-12)
(1.77485e-11 -1.3973e-11 7.91336e-12)
(3.316e-11 -1.11546e-11 -1.98337e-11)
(-1.87366e-11 -7.34035e-11 2.29499e-10)
(-1.32717e-11 2.18882e-11 -4.2883e-11)
(-1.16966e-10 8.46764e-11 -1.3439e-10)
(-3.233e-10 1.74213e-11 -5.15895e-11)
(-6.2916e-11 -2.19428e-11 2.46223e-11)
(-1.93029e-12 -1.17973e-12 1.68733e-12)
(-1.46788e-14 -2.96086e-14 4.88927e-14)
(1.41421e-15 -5.04371e-16 4.16103e-16)
(1.26938e-16 -1.46852e-17 -9.03117e-17)
(5.26744e-17 -2.06075e-17 -8.47343e-17)
(4.48466e-17 -4.29628e-17 -9.35285e-17)
(-0 0 0)
(8.0336e-17 -2.03637e-17 2.82043e-17)
(1.281e-16 2.33064e-18 1.00807e-16)
(-0 -0 -0)
(-0 -0 -0)
(1.50343e-18 2.19605e-17 5.93747e-17)
(0 -0 0)
(-1.07853e-16 -1.96829e-17 -1.35455e-16)
(3.287e-16 -4.3465e-17 6.82262e-16)
(0 -0 0)
(3.59294e-17 -4.98039e-17 7.98678e-17)
(-2.50889e-17 1.10337e-17 -2.4544e-17)
(8.10317e-17 2.43713e-17 2.68448e-17)
(0 0 0)
(-4.51558e-17 -2.79567e-17 -4.89518e-18)
(0 0 -0)
(1.84237e-17 8.42123e-18 -2.00521e-17)
(1.04317e-17 7.10231e-18 -1.81251e-17)
(0 0 0)
(3.19992e-17 9.00884e-18 1.45882e-16)
(1.0527e-15 -1.3147e-15 8.97818e-16)
(-8.80279e-14 9.41314e-14 9.64488e-15)
(-1.13362e-12 7.95375e-13 2.75565e-13)
(-2.68416e-13 8.22923e-14 6.20951e-14)
(-7.79609e-15 -1.70629e-14 8.15708e-15)
(-0 0 -0)
(-4.0981e-15 4.43833e-15 -1.23156e-15)
(-1.95738e-14 1.70149e-14 -5.2802e-15)
(-1.18566e-13 1.15066e-14 3.72915e-14)
(1.73043e-13 3.35218e-13 -5.26576e-13)
(3.33788e-16 -4.29319e-15 7.32089e-15)
(-1.54191e-13 1.59611e-13 -2.99072e-13)
(-1.12428e-12 1.62627e-13 -4.50628e-13)
(-2.22597e-13 -8.7599e-14 1.15812e-13)
(-7.83396e-15 -9.75538e-15 1.47304e-14)
(-1.03908e-16 -4.7126e-16 6.42612e-16)
(-9.63321e-18 -3.92986e-17 2.92546e-17)
(0 0 0)
(1.64158e-17 1.21256e-17 4.60226e-17)
(-1.07307e-17 -1.74736e-17 -6.23125e-17)
(-1.28958e-17 1.93464e-17 5.77436e-17)
(5.50685e-17 -1.28806e-17 -1.67653e-17)
(-2.13902e-16 -1.08087e-17 -1.20163e-16)
(1.39195e-16 3.08829e-17 1.3402e-16)
(-2.29405e-16 -8.76877e-17 -3.07577e-16)
(-4.59967e-17 -3.11759e-17 -1.07963e-16)
(0 -0 -0)
(2.66118e-17 1.31837e-17 3.14906e-17)
(0 0 0)
(1.64057e-17 -6.11207e-18 5.46071e-17)
(0 -0 0)
(0 -0 0)
(-6.14312e-17 -1.04137e-17 5.17419e-18)
(0 0 0)
(0 0 0)
(0 0 0)
(-2.70862e-18 1.68707e-18 -5.13421e-18)
(-0 -0 -0)
(0 -0 -0)
(5.23526e-17 -8.46468e-19 4.40782e-17)
(-6.02879e-17 3.11262e-17 -2.83852e-17)
(0 -0 0)
(-5.88002e-15 4.61096e-15 1.43042e-15)
(-1.86601e-15 7.11605e-16 7.80174e-16)
(7.82801e-18 -1.56578e-16 4.33323e-17)
(-0 0 0)
(-0 0 -0)
(-0 0 -0)
(2.02984e-16 8.48279e-17 -3.10643e-17)
(-1.80478e-16 -8.62797e-16 8.03242e-16)
(1.69808e-17 6.97919e-17 -9.05975e-17)
(1.22837e-16 3.52751e-16 -5.77477e-16)
(1.51097e-15 5.05175e-16 -2.10401e-15)
(6.73736e-16 -7.5872e-16 6.69163e-16)
(4.67171e-17 -1.05101e-16 1.10718e-16)
(0 0 -0)
(0 0 -0)
(-9.70082e-17 -9.3342e-18 -1.31238e-17)
(8.51776e-17 1.33567e-17 3.63374e-17)
(-5.29714e-17 -2.32909e-17 -5.58731e-17)
(1.51319e-17 2.15693e-17 6.63879e-17)
(-2.62022e-17 6.10548e-18 4.91087e-17)
(-0 -0 -0)
(-0 -0 -0)
(1.29896e-16 5.14699e-17 1.49898e-16)
(-1.92246e-16 -9.32996e-17 -2.70992e-16)
(-0 -0 -0)
(1.10699e-17 -1.75018e-17 -9.07733e-18)
(-9.71326e-18 -1.18873e-17 -5.07653e-17)
(-1.36169e-17 -1.31331e-18 -3.9002e-17)
(-3.06933e-17 5.9986e-18 -2.32653e-17)
(5.13208e-17 -2.20568e-18 2.81618e-20)
(0 0 -0)
(1.00694e-16 2.34328e-17 -1.78041e-19)
(1.56571e-16 5.05747e-17 3.50981e-17)
(-2.46192e-17 -9.61532e-18 -2.82871e-17)
(-1.93319e-17 -1.43994e-17 2.21035e-17)
(-2.95957e-17 -2.70488e-17 5.13733e-18)
(-0 -0 -0)
(-3.09786e-17 1.48542e-17 -8.37397e-18)
(7.79693e-17 -2.83128e-17 1.81411e-17)
(-1.08662e-16 5.60467e-17 -5.11633e-18)
(-9.95247e-17 5.50879e-17 1.58663e-17)
(0 -0 -0)
(-2.17471e-17 5.70779e-17 6.13555e-18)
(-0 0 0)
(-1.62919e-16 1.24204e-16 -1.89661e-17)
(5.54578e-17 -2.06221e-17 2.85066e-17)
(1.8859e-17 2.40015e-17 1.64049e-17)
(-0 -0 0)
(1.94074e-17 6.06134e-17 -6.95276e-17)
(5.37251e-17 3.54405e-17 -6.98224e-17)
(8.23607e-17 -7.23223e-18 -2.78196e-17)
(8.10384e-17 -3.97879e-17 2.08774e-17)
(-2.86543e-17 4.16958e-17 -4.16587e-17)
(0 0 -0)
(0 0 -0)
(1.19397e-16 1.2432e-17 7.12317e-18)
(0 0 0)
(0 0 0)
(3.0283e-17 4.08369e-17 6.26164e-17)
(0 0 0)
(0 -0 0)
(-0 -0 -0)
(-0 -0 -0)
(-1.19509e-16 -4.77511e-17 -1.34797e-16)
(-0 -0 -0)
(-5.53386e-17 -6.9249e-18 -2.66185e-17)
(-0 0 0)
(-9.41676e-18 -4.25817e-18 -2.05755e-18)
(0 -0 -0)
(0 -0 -0)
(1.16427e-16 6.89788e-18 -2.22617e-17)
(0 0 -0)
(0 0 0)
(2.2056e-17 -2.91639e-17 -4.40597e-17)
(-0 -0 0)
(-0 -0 0)
(-0 -0 0)
(3.51742e-17 -3.50083e-17 -6.52186e-18)
(0 -0 -0)
(0 -0 0)
(-1.74349e-16 4.23933e-17 -2.46051e-17)
(2.82801e-17 8.42819e-18 1.88789e-17)
(3.43324e-17 -3.92965e-17 -1.94021e-17)
(-0 0 -0)
(-7.93606e-17 4.24852e-17 -3.13479e-17)
(-0 0 -0)
(-1.73168e-17 -1.53081e-17 -3.66506e-17)
(5.38832e-18 -4.18203e-17 -5.13359e-18)
(-0 -0 0)
(-3.30126e-17 -2.19476e-17 4.28512e-17)
(-0 0 0)
(7.08592e-18 2.99749e-17 1.13602e-17)
(-6.86707e-17 -2.18266e-17 -6.64702e-18)
(9.65783e-17 9.40521e-18 7.54615e-18)
(6.22915e-17 1.38388e-17 -1.38034e-18)
(-0 0 -0)
(-6.02226e-17 5.22143e-17 -1.76783e-17)
(5.36187e-17 -5.54479e-17 -1.89512e-17)
(0 0 0)
(0 0 0)
(0 -0 0)
(8.73667e-17 -7.83149e-17 3.69478e-17)
(2.56181e-17 3.90923e-17 6.36962e-17)
(-7.97749e-17 -3.72397e-17 -1.07858e-16)
(-0 -0 -0)
(8.7068e-17 2.25931e-17 4.8269e-17)
(-0 -0 -0)
(-4.01456e-17 -2.06585e-17 -3.8755e-17)
(0 -0 -0)
(-5.94288e-17 1.04477e-17 5.59125e-17)
(8.3582e-17 1.76531e-17 -4.19172e-17)
(-5.78198e-17 -5.16016e-17 1.12919e-17)
(0 0 0)
(-2.39369e-17 1.00291e-16 1.10494e-16)
(1.71692e-17 4.80281e-18 -7.1515e-17)
(-0 -0 0)
(0 -0 0)
(0 -0 -0)
(0 -0 -0)
(9.3561e-17 -1.43083e-17 -1.61557e-17)
(0 0 0)
(1.48097e-17 1.32861e-17 1.90328e-17)
(-0 0 0)
(-0 0 -0)
(-0 0 -0)
(-0 0 -0)
(-0 0 -0)
(-4.94279e-18 2.35884e-17 2.18981e-17)
(0 -0 -0)
(2.00164e-17 -2.01753e-17 7.06854e-18)
(3.02341e-17 2.50077e-18 1.54479e-17)
(4.77221e-17 1.62854e-17 1.18132e-17)
(0 0 -0)
(-1.91403e-17 -1.47011e-17 2.42272e-17)
(-0 0 -0)
(6.63406e-17 -3.23405e-17 4.06615e-17)
(8.05577e-17 -4.53814e-17 9.48719e-18)
(-0 0 0)
(-0 0 0)
(0 0 0)
(-8.63212e-17 2.21314e-17 -1.23217e-16)
(-9.31177e-17 3.33425e-17 -6.62924e-17)
(0 -0 -0)
(1.79007e-17 2.14373e-17 6.76718e-17)
(-5.58125e-17 -1.8124e-17 -8.04793e-17)
(-0 -0 -0)
(-0 -0 -0)
(-0 -0 -0)
(1.77687e-18 3.14902e-17 4.81548e-17)
(0 -0 -0)
(0 0 -0)
(9.2123e-18 5.51099e-17 -8.87968e-18)
(8.02656e-18 7.91522e-17 1.5199e-17)
(1.55153e-17 5.91865e-17 3.35947e-17)
(0 0 0)
(3.54585e-17 -6.90117e-17 5.44669e-17)
(0 -0 0)
(3.22454e-17 -1.04977e-16 -5.29009e-18)
(0 -0 -0)
(0 -0 -0)
(-2.48672e-17 -1.0706e-17 4.78072e-17)
(0 0 -0)
(-1.64445e-17 2.34187e-17 -1.0551e-17)
(3.42368e-17 -3.05726e-17 -1.90703e-18)
(-0 0 0)
(-0 0 0)
(-0 0 0)
(-0 -0 0)
(-3.0072e-18 2.7833e-17 4.30596e-18)
(2.63656e-17 -3.51549e-17 -4.85391e-18)
(-4.13365e-17 2.22873e-17 1.48421e-18)