/*--------------------------------*- C++ -*----------------------------------*\
| =========                 |                                                 |
| \\      /  F ield         | OpenFOAM: The Open Source CFD Toolbox           |
|  \\    /   O peration     | Version:  5.0                                   |
|   \\  /    A nd           | Web:      www.OpenFOAM.org                      |
|    \\/     M anipulation  |                                                 |
\*---------------------------------------------------------------------------*/
FoamFile
{
    version     2.0;
    format      ascii;
    class       volVectorField;
    location    "50.4676134421789371";
    object      TUMean;
}
// * * * * * * * * * * * * * * * * * * * * * * * * * * * * * * * * * * * * * //

dimensions      [0 1 -1 1 0 0 0];

internalField   nonuniform List<vector> 
60000
(
(0.000194623 -0.000182106 -0.00348273)
(0.00249743 -0.000211819 -0.0030882)
(0.00411398 -0.000163479 -0.00197241)
(0.00389014 -5.27124e-05 -0.000288665)
(0.00199877 2.40113e-05 0.00125912)
(0.000128857 3.36282e-05 0.00213883)
(-0.000829532 2.12366e-05 0.00236876)
(-0.00169496 1.32727e-05 0.00168059)
(-0.00287457 1.35345e-05 0.000217321)
(-0.00336361 -4.35757e-06 -0.00136139)
(-0.00262548 -6.92298e-05 -0.00223278)
(-0.00123525 -0.000107227 -0.00213055)
(-0.000554625 -7.0298e-05 -0.00145344)
(-0.000966972 -6.04534e-05 -0.000714983)
(-0.00141637 -0.000105441 0.000210946)
(-0.00106398 -0.000138651 0.00154978)
(-0.000522585 -1.1949e-05 0.00298497)
(-0.00107415 0.000137206 0.00413244)
(-0.00315606 0.000251167 0.00531763)
(-0.00658122 0.000262257 0.00551122)
(-0.0106541 0.000263001 0.00378195)
(-0.0139688 0.000126465 0.000992886)
(-0.0152088 -2.90755e-05 -0.0016732)
(-0.0157198 -3.89663e-05 -0.00346348)
(-0.0177331 0.000144218 -0.00393296)
(-0.0202058 0.000238391 -0.00380545)
(-0.0204555 0.000115721 -0.00403505)
(-0.0163757 -9.3864e-05 -0.00466496)
(-0.00929965 -0.00018535 -0.0042442)
(-0.00460378 -0.000146244 -0.0015847)
(-0.00503268 -0.000110425 0.00183459)
(-0.00712265 -0.000169867 0.00406081)
(-0.00800864 -0.000246438 0.0052138)
(-0.00625693 -0.000262223 0.00636058)
(-0.0015653 -0.000178306 0.00734804)
(0.00206684 2.61282e-05 0.00593568)
(0.00025289 -2.54691e-05 0.00175309)
(-0.00258491 -6.38989e-05 -0.00164292)
(-0.00307055 -9.99064e-05 -0.00309073)
(-0.00185752 -0.000130837 -0.00348947)
(-0.00584116 -0.00111154 -0.00782329)
(0.000531322 -0.000966509 -0.00467955)
(0.00522079 -0.000360017 -0.00125631)
(0.00663469 0.000245752 0.00150332)
(0.00454352 0.000448128 0.00417215)
(0.000829835 0.000165506 0.00583692)
(-0.0019023 -5.71123e-05 0.00489949)
(-0.00415387 -8.93981e-05 0.00124544)
(-0.00803669 2.05835e-05 -0.00409889)
(-0.0117993 -0.000275058 -0.00833875)
(-0.0125368 -0.000672368 -0.00956532)
(-0.00926043 -0.000779219 -0.00745081)
(-0.00473592 -0.000299792 -0.0032271)
(-0.00295303 0.000181102 0.000933512)
(-0.00436938 0.000244158 0.00437258)
(-0.00677388 0.00030101 0.00750887)
(-0.008913 0.000584473 0.00973945)
(-0.0115087 0.000799088 0.010787)
(-0.0143112 0.00035828 0.0115321)
(-0.0173885 -0.000454814 0.00986265)
(-0.0220049 -0.00081215 0.00279415)
(-0.0291666 -0.000679384 -0.00741547)
(-0.0363498 -0.000150067 -0.0142563)
(-0.0442204 0.00106892 -0.0147718)
(-0.0548484 0.00256097 -0.0110889)
(-0.065443 0.00330946 -0.00669992)
(-0.0704597 0.00257691 -0.00434269)
(-0.0647182 0.000906937 -0.00458165)
(-0.0468716 -0.000471348 -0.00510489)
(-0.0262468 -0.000650488 -0.00222384)
(-0.0177666 -0.000162013 0.00410769)
(-0.0212341 -0.00010557 0.00968092)
(-0.026905 -0.000553909 0.0122453)
(-0.0279217 -0.000926876 0.0133721)
(-0.0195724 -0.0010009 0.0138906)
(-0.00409048 -0.000247554 0.0110267)
(0.00232995 0.000337707 0.00283223)
(-0.00407593 0.000109098 -0.00537571)
(-0.010098 -0.000437585 -0.00937268)
(-0.0103313 -0.000907918 -0.00963686)
(-0.0047353 -0.000635388 -0.0034307)
(-0.00260381 -0.000674761 -0.00212857)
(-0.000693028 -0.00028362 -0.00039384)
(0.000489421 0.000140153 0.000638315)
(0.00112607 0.000315236 0.00118429)
(0.000887505 0.000176175 0.0019228)
(2.99939e-06 1.46587e-05 0.0020394)
(-0.000947269 -6.92177e-05 0.000856953)
(-0.00234601 4.18592e-05 -0.00137648)
(-0.00436902 -8.87587e-05 -0.00359985)
(-0.00573893 -0.000347489 -0.00458203)
(-0.00519396 -0.000567699 -0.00391953)
(-0.00302797 -0.000377698 -0.00197955)
(-0.00135466 2.1795e-05 9.78836e-05)
(-0.00152327 0.000239049 0.00155114)
(-0.00279133 0.000422104 0.00256989)
(-0.00398366 0.000671084 0.00337806)
(-0.00451095 0.000837405 0.00388949)
(-0.00429666 0.000301661 0.00431403)
(-0.00416268 -0.000803291 0.00353906)
(-0.00493497 -0.00143088 9.57016e-05)
(-0.0078188 -0.00114054 -0.00558551)
(-0.0114926 -0.000259929 -0.0095543)
(-0.0145521 0.00102465 -0.00899428)
(-0.0174623 0.00212816 -0.00571048)
(-0.020039 0.00252379 -0.00218646)
(-0.0216019 0.00193469 7.08878e-05)
(-0.0210563 0.000738599 0.000748259)
(-0.0167898 -0.000388866 0.00036396)
(-0.00990551 -0.0006919 0.00020051)
(-0.00521514 -0.00024918 0.00119767)
(-0.00509307 0.000122074 0.00279945)
(-0.00731535 2.24171e-06 0.00399197)
(-0.00931809 -0.000308388 0.00458221)
(-0.00879993 -0.00057177 0.00479647)
(-0.00443755 -0.000381088 0.00401741)
(2.54505e-05 0.000153111 0.00183312)
(-0.000295066 0.000343573 -0.00080073)
(-0.00342224 0.00013565 -0.00277934)
(-0.00529423 -0.000272339 -0.00371673)
(-0.000621787 -0.000140736 -0.000694336)
(-0.000311988 -0.000179707 -0.000501641)
(1.10642e-05 -8.02438e-05 -0.000127013)
(0.000145078 2.7762e-05 0.000108454)
(0.00019593 5.41917e-05 0.000133755)
(0.000205383 3.24837e-05 0.000163881)
(0.00019239 1.26065e-05 0.000255191)
(9.66364e-05 -1.25728e-05 0.000221157)
(-8.92517e-05 3.07178e-06 -9.54864e-05)
(-0.000412842 4.23174e-07 -0.000557589)
(-0.000740813 -6.65504e-05 -0.000890123)
(-0.000659097 -0.000144735 -0.000810686)
(-0.000187004 -0.000111064 -0.000384705)
(0.000110366 -1.18623e-05 5.73279e-06)
(4.6637e-05 3.2177e-05 0.000150788)
(-9.69293e-05 4.69506e-05 0.000191721)
(-0.000306584 0.000104067 0.000361604)
(-0.000435979 0.000210621 0.000714996)
(2.87939e-05 9.98911e-05 0.0011572)
(0.000528529 -0.000426718 0.00108603)
(0.000223887 -0.000668132 3.33599e-06)
(-0.0005189 -0.000401347 -0.0012815)
(-0.00104645 -5.83692e-05 -0.00173698)
(-0.00118161 0.00020574 -0.00135168)
(-0.00128731 0.000367692 -0.000771996)
(-0.00143456 0.000415698 -0.000203547)
(-0.00162466 0.000310248 0.000246842)
(-0.00185633 4.90745e-05 0.000589198)
(-0.00138148 -0.000338188 0.000709415)
(9.04356e-05 -0.000463043 0.000556775)
(0.00106984 -0.00022797 0.000473674)
(0.000872318 -9.59608e-06 0.00054202)
(0.000251362 2.61547e-05 0.00062026)
(-0.000217791 -3.70572e-05 0.000732131)
(-0.000447457 -0.000142208 0.000952038)
(5.09654e-05 -0.000155982 0.000936954)
(0.000758423 -3.09063e-06 0.000476093)
(0.000597175 9.55166e-05 1.36029e-05)
(1.78337e-05 7.87565e-05 -0.000290117)
(-0.000525909 -1.14957e-05 -0.000571431)
(-3.3407e-05 -9.90224e-06 -5.34859e-05)
(-5.13773e-06 -3.58955e-06 -1.16113e-05)
(-9.89369e-06 7.63431e-06 1.75684e-05)
(-4.3061e-05 -3.13857e-06 -7.5627e-06)
(-9.00367e-05 -1.78496e-05 -3.55549e-05)
(-0.000147834 -1.84526e-05 -6.3565e-05)
(-0.000126237 -7.15238e-06 -8.42497e-05)
(-2.83124e-05 4.67265e-07 -2.50997e-05)
(1.08225e-05 5.73787e-08 4.59143e-06)
(-8.22382e-06 2.28616e-06 -4.6191e-05)
(-8.82927e-05 -1.06787e-05 -0.000166979)
(-8.76734e-05 -2.85986e-05 -0.000149409)
(6.84199e-06 1.38426e-05 4.04021e-05)
(-0.000126191 2.28826e-05 2.86466e-05)
(-0.000186649 -4.7451e-05 -0.000190563)
(6.85945e-05 -0.000101719 -0.000340122)
(0.000175119 -8.31999e-05 -0.000246127)
(-3.94523e-05 3.00468e-05 9.15282e-05)
(0.000335136 5.1921e-05 0.000562758)
(0.00122907 -0.000349742 0.000806168)
(0.000747709 -0.000497148 0.00013754)
(1.58928e-05 -4.23641e-05 -6.92176e-05)
(0.000444099 4.78811e-05 0.00104734)
(0.000948972 -0.000271148 0.00139688)
(0.000772527 -0.00037248 0.000656629)
(0.000386437 -0.000208153 8.53167e-05)
(0.00018845 -6.9116e-05 -5.77534e-05)
(-1.20898e-05 -1.82271e-07 8.05756e-06)
(-0.000201916 -0.000124262 0.000217826)
(0.000171928 -0.000259613 0.00028059)
(0.000554132 -0.000139663 0.000181325)
(0.000312372 -1.84065e-05 7.98055e-05)
(-2.69121e-05 -3.35678e-07 -1.00032e-05)
(-0.000107434 1.9971e-06 -7.72435e-05)
(-3.60748e-06 1.08657e-06 -6.35522e-06)
(9.94552e-05 -3.07113e-05 0.000166972)
(0.000160523 -8.29479e-06 0.000104469)
(-1.48906e-05 -1.80236e-06 -2.09473e-06)
(-4.4563e-05 -1.14171e-05 8.6552e-06)
(-1.95437e-06 1.38794e-06 -1.03206e-05)
(1.63949e-05 3.23703e-06 2.90031e-05)
(2.9528e-05 2.10052e-05 6.08674e-05)
(1.16584e-05 2.87478e-05 7.65741e-05)
(-3.3825e-05 3.1143e-06 2.19256e-05)
(-7.11161e-05 -1.7151e-05 -2.09363e-05)
(-0.000125306 -1.81586e-05 -4.1921e-05)
(-0.000154691 -9.6704e-06 -7.32452e-05)
(-0.000105144 -1.56362e-06 -7.11764e-05)
(-4.27651e-05 -5.93257e-07 -2.32475e-05)
(-1.22129e-05 -1.31708e-06 6.62492e-06)
(-2.90711e-06 -8.41334e-07 -1.89985e-05)
(-2.80686e-05 -1.25855e-05 -6.16089e-05)
(2.5407e-05 2.33469e-05 6.31858e-05)
(-3.53034e-05 5.70001e-05 8.82574e-05)
(-9.50957e-05 -2.86238e-05 -0.000148703)
(0.000132177 -0.000118013 -0.000342163)
(0.00029574 -0.000127095 -0.000320843)
(8.32274e-05 -3.86441e-05 -9.352e-05)
(0.000141227 3.7582e-05 0.000236323)
(0.00136808 -0.000294128 0.000607752)
(0.00126006 -0.000573846 0.00027215)
(2.20442e-06 7.17757e-06 1.98092e-05)
(0.000558411 0.000131242 0.00150653)
(0.0012844 -0.000414813 0.00192863)
(0.00076613 -0.000503925 0.000794814)
(0.000214578 -0.000197532 8.01477e-05)
(6.61357e-05 -4.39282e-05 -2.44724e-05)
(9.345e-05 -8.77765e-06 -5.60287e-05)
(6.62024e-06 1.92995e-06 -3.8446e-06)
(-0.000134662 -0.000120721 9.52887e-05)
(2.48739e-05 -0.000119684 9.10143e-05)
(7.63939e-05 -2.06758e-05 2.67118e-05)
(-0.000126614 5.15843e-06 -2.70813e-05)
(-0.00029659 4.22588e-06 -7.57376e-05)
(-0.000237099 1.61102e-05 -0.000112628)
(-4.91285e-05 8.5408e-06 -4.61339e-05)
(-7.56975e-06 8.15879e-07 -7.64302e-06)
(-0.000108471 -1.03855e-05 -5.74671e-05)
(-0.000144914 -3.8303e-05 -3.50826e-05)
(-3.27125e-05 -1.99961e-05 1.54416e-05)
(-2.06894e-06 -3.42209e-06 7.83205e-06)
(1.20974e-05 8.46664e-06 2.4608e-05)
(1.53369e-05 1.66354e-05 4.2641e-05)
(4.10732e-06 5.72934e-06 2.53874e-05)
(-8.22961e-06 -5.14582e-06 1.80955e-06)
(-2.8278e-05 -7.16553e-06 -9.49939e-06)
(-5.94768e-05 -4.52492e-06 -2.45365e-05)
(-6.46385e-05 -2.38264e-06 -3.92245e-05)
(-4.48038e-05 -1.44464e-06 -2.43748e-05)
(-2.47049e-05 -1.3544e-06 -2.17157e-06)
(5.89363e-08 -4.24028e-08 -3.14679e-07)
(-1.59406e-06 -8.07643e-06 -3.55191e-05)
(1.26322e-06 1.82291e-06 3.88687e-06)
(1.78136e-05 3.834e-05 4.89661e-05)
(3.70511e-05 1.52149e-06 -6.67971e-05)
(0.000143411 -6.66321e-05 -0.000190933)
(0.0002421 -9.71513e-05 -0.000221898)
(0.000175238 -6.9745e-05 -0.000132645)
(8.66509e-06 1.27083e-05 4.38638e-05)
(0.00102298 -0.000230634 0.000250804)
(0.00161777 -0.000580165 0.000275353)
(7.7689e-05 -4.59917e-05 -2.07274e-05)
(0.000264819 0.000161723 0.00120386)
(0.00083935 -0.000352929 0.00147471)
(0.000320734 -0.000347 0.000455351)
(6.49327e-05 -0.000107028 3.67547e-05)
(1.74162e-06 -1.81746e-06 -3.99746e-07)
(-4.13527e-07 2.0471e-07 1.70821e-07)
(4.64195e-05 1.38573e-05 -2.03748e-05)
(1.49817e-06 6.50079e-07 -6.25446e-07)
(-9.52013e-05 -4.94895e-05 2.33232e-05)
(-4.77907e-05 -3.5113e-05 1.37142e-05)
(-8.31995e-08 -6.21071e-07 2.61454e-07)
(-9.61695e-05 1.14981e-05 -1.0468e-05)
(-0.000184525 1.38869e-05 -3.53467e-05)
(-0.00010917 9.66894e-06 -4.40338e-05)
(-2.61573e-05 2.3861e-06 -2.00613e-05)
(-3.72201e-05 -2.23213e-06 -3.41756e-05)
(-6.35982e-05 -1.84315e-05 -4.28502e-05)
(-3.93668e-05 -1.96406e-05 -1.80859e-05)
(-6.75432e-06 -4.09829e-06 -4.45443e-06)
(-1.20914e-06 1.08576e-06 5.31282e-06)
(1.64086e-06 4.57471e-06 1.25288e-05)
(1.90416e-06 1.93977e-06 9.60341e-06)
(1.66771e-06 -7.48187e-07 2.209e-06)
(1.1659e-06 -8.3115e-07 3.43353e-08)
(-2.75578e-06 -2.78115e-07 -2.58075e-06)
(-1.16234e-05 -3.7527e-07 -9.59523e-06)
(-1.59003e-05 -7.28908e-07 -1.0255e-05)
(-1.20351e-05 -4.50434e-07 -2.46057e-06)
(7.25671e-06 -1.09042e-07 -2.00132e-06)
(1.66559e-05 -5.85779e-06 -1.98554e-05)
(6.55621e-07 -4.04631e-06 -7.0943e-06)
(1.13726e-05 1.85563e-05 1.50817e-05)
(5.06829e-05 4.9266e-06 -3.39587e-05)
(7.7096e-05 -2.42033e-05 -6.86619e-05)
(9.24094e-05 -3.77027e-05 -7.31863e-05)
(0.000155912 -6.85232e-05 -9.47028e-05)
(1.30872e-05 -4.63422e-06 -4.1927e-06)
(0.000446835 -0.000159098 -4.70457e-06)
(0.00133962 -0.000474454 0.000108885)
(0.00012094 -5.47281e-05 -1.60784e-05)
(-0.000126887 0.000146772 0.000714279)
(0.00024381 -0.000217414 0.000768281)
(8.17896e-05 -0.000185426 0.000185238)
(2.22869e-05 -5.14181e-05 1.5529e-05)
(1.18948e-05 -1.13039e-05 -7.81116e-07)
(-5.23671e-06 9.15178e-07 1.37296e-06)
(-4.07321e-06 -9.7502e-07 1.42677e-06)
(1.37836e-05 5.22891e-06 -3.93489e-06)
(1.03437e-06 3.29899e-07 -1.79746e-07)
(-4.03108e-05 -1.01731e-05 -4.89281e-07)
(-2.96797e-05 -1.02508e-05 -3.75857e-06)
(-3.83184e-07 -1.00357e-07 -6.29918e-08)
(-3.35634e-05 7.46691e-06 -2.40392e-06)
(-5.719e-05 6.13674e-06 -1.24354e-05)
(-2.94769e-05 1.78503e-06 -1.23818e-05)
(-1.47119e-05 -3.26203e-07 -1.11863e-05)
(-1.48259e-05 -3.86334e-06 -1.64914e-05)
(-1.38363e-05 -7.13895e-06 -1.53753e-05)
(-2.67506e-06 -1.42199e-06 -3.43146e-06)
(-2.64908e-06 -4.6348e-07 -2.03333e-07)
(-2.22221e-06 5.76082e-07 2.69697e-06)
(-1.0276e-06 1.32228e-07 2.47755e-06)
(2.29443e-07 -2.55353e-07 5.09817e-07)
(-4.56448e-08 8.86787e-09 -3.90458e-09)
(2.04099e-07 5.07289e-09 -1.64763e-08)
(1.12162e-06 8.99228e-08 -8.24414e-07)
(-1.02303e-06 -2.84806e-08 -2.29775e-06)
(-2.28337e-06 -9.90085e-09 -6.82176e-07)
(1.01163e-05 -2.83658e-07 -1.18917e-06)
(2.47157e-05 -4.46321e-06 -9.7878e-06)
(4.8819e-06 -4.44064e-06 -4.65015e-06)
(6.59473e-06 1.01993e-05 1.73652e-06)
(3.85276e-05 2.00679e-06 -2.25457e-05)
(2.73962e-05 -7.97913e-06 -1.88376e-05)
(-1.36765e-06 6.19164e-07 8.94905e-07)
(6.45377e-05 -3.83544e-05 -3.36337e-05)
(3.67802e-05 -1.19645e-05 -8.59692e-08)
(8.73966e-05 -8.0029e-05 -4.16034e-05)
(0.000657237 -0.000316517 -2.62207e-05)
(9.46122e-05 -4.0036e-05 -9.94108e-06)
(-0.000290818 9.58448e-05 0.000304061)
(-3.49608e-05 -0.000117796 0.000300394)
(9.26526e-06 -9.89869e-05 6.93321e-05)
(8.3241e-06 -2.22953e-05 7.14274e-06)
(3.19096e-06 -2.66852e-06 5.44437e-07)
(2.54827e-06 -3.63553e-07 -2.19908e-07)
(-1.85234e-06 -4.20303e-07 5.12937e-07)
(-1.16081e-06 -3.44392e-07 2.85052e-07)
(4.0096e-06 7.60454e-07 -1.96937e-07)
(2.00495e-06 2.54248e-07 2.14072e-07)
(-8.98805e-06 -1.53808e-06 -1.94635e-06)
(-8.21221e-06 -3.16789e-06 -2.68023e-06)
(2.12316e-09 -3.93156e-07 -1.35049e-07)
(-8.2243e-06 2.26032e-06 -1.40817e-06)
(-1.22359e-05 1.25799e-06 -3.73964e-06)
(-6.94888e-06 6.42115e-08 -3.34952e-06)
(-4.10967e-06 -4.99955e-07 -3.73881e-06)
(-3.27027e-06 -1.33883e-06 -5.26094e-06)
(-7.53442e-07 -2.91263e-07 -1.28061e-06)
(-1.34429e-06 -2.87457e-07 -6.7288e-07)
(-1.22072e-06 -6.87772e-08 5.0049e-07)
(-4.60398e-07 -1.21061e-07 6.14342e-07)
(4.27152e-08 -2.98424e-07 4.68464e-07)
(3.33363e-08 -1.67598e-08 5.98883e-09)
(-1.33964e-08 3.96737e-10 3.17604e-09)
(5.19668e-08 3.01342e-09 -2.06146e-08)
(5.88246e-07 2.16783e-08 -4.59109e-07)
(-4.00106e-07 7.85492e-08 -4.25651e-07)
(3.89991e-06 -3.73531e-07 -4.19792e-07)
(1.84212e-05 -2.93214e-06 -4.49535e-06)
(5.28929e-06 -2.35095e-06 -1.33442e-06)
(1.71174e-06 4.12107e-06 -2.18673e-06)
(2.04177e-05 -2.40299e-07 -1.25736e-05)
(1.24198e-05 -4.28727e-06 -7.04859e-06)
(-1.18691e-05 7.22992e-06 6.14255e-06)
(8.20496e-06 -6.93749e-06 -3.61834e-06)
(1.78392e-05 -8.85493e-06 -1.36271e-07)
(3.15847e-06 -2.0951e-05 -1.02955e-05)
(0.000169754 -0.000163602 -3.67378e-05)
(5.41123e-05 -2.88402e-05 -6.75968e-06)
(-0.000212476 4.72922e-05 8.54883e-05)
(-9.10484e-05 -5.99823e-05 8.31746e-05)
(-8.74735e-06 -4.45167e-05 2.24079e-05)
(3.38579e-06 -9.40868e-06 4.0056e-06)
(1.27796e-06 -9.42001e-07 5.25234e-07)
(5.08536e-08 -1.68754e-09 1.05594e-10)
(1.0202e-06 2.29565e-07 -2.43587e-07)
(-1.46156e-07 -3.26829e-08 2.72196e-08)
(-2.04568e-07 -2.10059e-08 -1.02389e-08)
(3.27344e-07 1.46051e-08 7.98688e-08)
(1.85318e-06 1.35751e-07 6.388e-07)
(-5.07579e-07 -1.29724e-07 -2.14796e-07)
(-9.1458e-07 -7.01054e-07 -4.76207e-07)
(4.06817e-08 -5.78387e-08 6.94289e-09)
(-1.63604e-06 4.51515e-07 -6.07491e-07)
(-2.00534e-06 1.77536e-07 -8.90552e-07)
(-1.45245e-06 -4.51857e-09 -9.64356e-07)
(-7.62586e-07 -1.24589e-07 -1.09052e-06)
(-2.27215e-08 -3.59863e-09 -4.92128e-08)
(-1.67312e-07 -3.02916e-08 -1.23105e-07)
(-2.04085e-07 -4.55741e-08 5.29994e-08)
(-4.44091e-08 -4.06189e-08 9.18567e-08)
(2.36718e-09 -1.02419e-08 1.57562e-08)
(1.40324e-09 -1.75701e-09 1.2295e-09)
(-1.18573e-08 2.23343e-09 1.10293e-08)
(-3.09442e-08 -2.42839e-09 3.56852e-08)
(6.42307e-08 1.2059e-10 -5.99941e-08)
(5.76076e-08 1.62807e-08 -7.10297e-08)
(1.86208e-07 -5.5484e-08 -3.88294e-08)
(5.22233e-06 -1.14877e-06 -1.36424e-06)
(2.88381e-06 -8.58718e-07 -4.57286e-07)
(-8.02583e-07 1.05888e-06 -1.03577e-06)
(6.08703e-06 -7.14526e-07 -4.99725e-06)
(5.47217e-06 -2.5564e-06 -3.12066e-06)
(-2.58483e-06 1.87899e-06 1.15761e-06)
(-2.10498e-06 1.99707e-06 6.79496e-07)
(3.34803e-06 -2.71317e-06 -1.26115e-07)
(1.37274e-08 -6.30501e-07 -1.50889e-07)
(1.89956e-05 -5.64515e-05 -8.66638e-06)
(1.96993e-05 -1.80105e-05 -2.42026e-06)
(-8.13326e-05 1.91942e-05 1.16495e-05)
(-5.18095e-05 -2.38873e-05 1.35513e-05)
(-6.34026e-06 -1.49789e-05 6.04764e-06)
(7.08579e-07 -2.38328e-06 1.37848e-06)
(9.39001e-07 -6.51109e-07 6.33143e-07)
(5.2246e-08 -4.58083e-11 6.58858e-09)
(1.17798e-09 3.29306e-10 -4.34781e-10)
(1.09613e-08 1.8544e-09 -2.01984e-09)
(-1.59389e-08 -5.32959e-10 -2.1561e-09)
(-1.40491e-08 1.98366e-10 -5.21742e-09)
(6.95514e-09 2.40994e-10 3.64023e-09)
(2.03159e-08 3.33206e-09 1.24151e-08)
(-4.55e-09 -3.09205e-09 -3.53382e-09)
(-4.24171e-10 3.71039e-10 -1.63453e-10)
(-2.30466e-09 9.23395e-10 -1.21888e-09)
(-7.01119e-08 1.62101e-08 -4.14173e-08)
(-5.05395e-08 6.38709e-09 -3.98695e-08)
(2.33255e-08 -1.12706e-09 3.91806e-08)
(-4.38744e-09 2.06477e-09 -1.94072e-08)
(-1.79672e-08 -1.53389e-09 -2.43194e-08)
(-1.84733e-08 -8.96203e-09 3.62542e-09)
(-1.45982e-09 -3.73869e-09 5.63309e-09)
(5.27713e-12 -3.77916e-10 5.40513e-10)
(-6.19885e-12 -1.67243e-11 1.80335e-11)
(-3.03143e-11 -1.2697e-11 -2.71162e-11)
(-2.3395e-11 -4.54166e-11 8.76464e-10)
(-2.5776e-09 -1.79548e-11 5.58251e-09)
(2.1338e-08 3.58379e-09 -2.31031e-08)
(-1.26121e-10 5.23484e-09 -1.55729e-10)
(1.93135e-06 -7.67215e-07 -7.97383e-07)
(3.69166e-07 -1.11952e-07 -8.09153e-08)
(-1.7244e-06 5.64575e-07 -3.36679e-07)
(6.33231e-07 -3.09579e-07 -1.24622e-06)
(1.73499e-06 -1.05479e-06 -1.23451e-06)
(1.62138e-07 -1.25673e-07 -6.43831e-08)
(-4.60489e-07 4.54016e-07 2.28647e-08)
(4.87554e-07 -5.4491e-07 8.02964e-08)
(1.95294e-08 5.23483e-07 -1.67151e-07)
(1.1063e-06 -1.12068e-05 1.58913e-06)
(3.98277e-06 -7.72306e-06 6.26913e-07)
(-1.60894e-05 6.0907e-06 -6.29615e-07)
(-1.4051e-05 -5.95044e-06 1.13255e-06)
(-2.32161e-06 -4.51012e-06 1.75454e-06)
(1.14793e-07 -1.38902e-06 9.87761e-07)
(1.28898e-08 -1.25014e-08 1.70937e-08)
(2.41878e-10 4.66518e-12 7.49467e-11)
(-6.87355e-12 -1.3106e-12 3.98218e-12)
(-7.2956e-11 -6.98571e-12 1.86422e-11)
(7.93876e-11 -4.19064e-12 1.25128e-11)
(8.32486e-11 -6.36286e-12 3.75608e-11)
(-3.82572e-11 2.4642e-13 -2.47253e-11)
(-1.16277e-10 -1.37784e-11 -9.18781e-11)
(1.42719e-11 8.63815e-12 1.66985e-11)
(-8.83193e-12 1.8192e-11 6.99337e-12)
(1.38507e-10 -6.52584e-11 6.14416e-11)
(-2.90854e-09 8.44247e-10 -2.06456e-09)
(-4.65794e-10 1.32738e-10 -5.33205e-10)
(-3.16572e-10 1.67713e-10 -9.30059e-10)
(-4.02033e-12 2.92361e-11 -9.92854e-11)
(-3.48112e-11 5.54851e-11 -3.20351e-10)
(-7.84918e-11 -1.38582e-10 -2.20894e-11)
(-1.27204e-11 -7.84551e-11 7.67868e-11)
(-2.7842e-12 -7.30825e-12 7.57918e-12)
(-4.0532e-13 -3.12068e-13 2.88573e-13)
(-7.20655e-14 -1.65486e-14 3.06164e-15)
(2.66051e-12 -3.39193e-14 2.60023e-12)
(1.18408e-11 6.05328e-12 -1.33404e-10)
(-1.13116e-09 -3.31767e-10 1.79234e-09)
(5.12777e-09 2.14598e-08 1.63446e-09)
(8.24639e-08 -5.83572e-08 -5.93625e-08)
(1.7707e-07 -6.78682e-08 -6.37284e-08)
(-2.37635e-07 6.05012e-08 -5.70614e-09)
(-1.37234e-08 -2.26174e-08 -7.86628e-08)
(1.31824e-08 -1.12369e-08 -1.29318e-08)
(-5.2734e-08 4.75041e-08 1.20702e-08)
(-5.11372e-08 5.37719e-08 -2.05824e-08)
(2.66036e-08 -2.78429e-08 8.18964e-09)
(1.90485e-07 9.87558e-08 -5.15046e-07)
(1.721e-07 -1.55469e-06 1.29589e-06)
(6.81369e-07 -2.27775e-06 1.01516e-06)
(-1.68699e-06 1.38934e-06 -5.78472e-07)
(-1.63136e-06 -8.06988e-07 1.11685e-07)
(-8.0244e-07 -1.44096e-06 6.88851e-07)
(-1.61288e-08 -4.40759e-08 3.76328e-08)
(-8.72132e-11 -5.67344e-10 9.34087e-10)
(1.80034e-11 4.92366e-12 7.65994e-13)
(1.46586e-12 4.19379e-13 -1.09995e-12)
(3.64915e-13 -4.24191e-15 -1.79145e-13)
(-2.11035e-13 3.9089e-14 -1.2385e-14)
(-3.09486e-13 5.21044e-14 -1.42011e-13)
(1.38561e-13 -6.94134e-15 9.78727e-14)
(5.82592e-13 4.66787e-14 5.15323e-13)
(-3.9903e-14 -1.71099e-14 -5.1424e-14)
(-3.50725e-16 -4.75931e-14 -5.15808e-14)
(4.40841e-13 -2.0965e-13 1.57821e-13)
(-6.94646e-12 1.33546e-12 -4.97118e-12)
(-5.3991e-12 1.04026e-12 -6.13101e-12)
(8.94152e-12 -6.94152e-12 2.67052e-11)
(3.31322e-15 2.39106e-15 -2.1269e-15)
(4.52444e-13 9.48051e-13 -2.77862e-12)
(1.01144e-12 -7.7636e-13 -2.06226e-12)
(-9.66234e-14 -7.95752e-13 2.45449e-13)
(-6.46396e-14 -8.29714e-14 4.60764e-14)
(-7.10636e-15 -3.95665e-15 2.99577e-15)
(2.38995e-15 6.29095e-16 -7.45421e-16)
(-3.24215e-14 -4.95272e-15 9.57054e-16)
(6.12782e-14 3.54027e-14 2.86934e-13)
(1.45246e-12 1.55323e-13 -2.79315e-12)
(1.72142e-11 2.54122e-11 -1.68941e-11)
(1.50027e-09 -2.20279e-09 -1.33321e-09)
(-2.08216e-08 1.14418e-08 1.06454e-08)
(-2.31946e-08 6.94057e-09 3.30828e-09)
(-1.26078e-09 -2.04312e-10 -9.31072e-10)
(5.56394e-11 -1.18584e-10 -1.06484e-10)
(-9.31097e-12 1.11492e-11 2.06768e-12)
(-1.91142e-09 1.88667e-09 -1.52451e-09)
(-6.67504e-09 5.58373e-09 -2.82206e-09)
(2.84741e-09 -4.21206e-10 -6.39244e-09)
(-1.10687e-09 9.34456e-09 -2.14104e-08)
(3.02512e-09 -8.17356e-09 9.19374e-09)
(-3.21735e-08 4.33467e-08 -3.28254e-08)
(-2.83069e-08 -1.10478e-08 4.90955e-09)
(-5.10934e-09 -4.66323e-09 3.37166e-09)
(-1.68223e-10 -1.25367e-10 1.32346e-10)
(-6.38768e-13 -3.88608e-13 6.59458e-13)
(-2.68339e-14 -5.04613e-15 9.91361e-15)
(-7.48305e-15 -1.06075e-15 6.54189e-15)
(-1.06391e-15 1.75057e-16 9.01477e-16)
(2.82088e-16 -1.20805e-16 -8.99861e-17)
(6.96398e-16 -2.33182e-16 2.18901e-16)
(-2.3106e-16 2.16173e-17 -1.63339e-16)
(-2.41945e-15 -1.32701e-16 -2.18684e-15)
(1.49404e-16 4.30162e-17 1.89885e-16)
(1.53622e-16 1.6481e-16 3.83872e-16)
(3.87369e-16 -2.61974e-16 -3.86433e-17)
(-7.81572e-15 8.40545e-16 -6.18728e-15)
(-4.09103e-14 1.40021e-15 -4.71467e-14)
(1.05964e-13 -4.92547e-14 2.11898e-13)
(6.90615e-16 -1.2118e-15 2.91988e-15)
(-9.4116e-17 4.47352e-15 -1.09992e-14)
(9.60828e-17 -3.03491e-16 -2.50209e-14)
(-2.97562e-15 -3.97815e-15 -2.97305e-15)
(-6.56148e-16 -4.98188e-16 1.5546e-17)
(-8.55478e-17 -4.20895e-17 2.92043e-17)
(-1.73958e-17 -5.8581e-18 9.58536e-18)
(6.10917e-17 1.88163e-17 -3.96503e-17)
(-3.24995e-16 -3.50096e-16 1.38212e-17)
(-3.72593e-15 2.47822e-15 8.08455e-15)
(5.45691e-14 4.94828e-14 -1.24055e-13)
(2.42575e-12 -5.78547e-12 -7.07836e-14)
(-9.67751e-11 8.1167e-11 4.0161e-11)
(-2.49953e-10 1.10035e-10 5.20524e-11)
(-2.93668e-11 2.37539e-12 -3.24194e-12)
(-2.51041e-13 -1.38556e-12 -1.54667e-13)
(2.15425e-13 -2.51902e-13 1.42724e-13)
(-2.38535e-12 2.22673e-12 -1.58438e-12)
(4.29417e-11 -3.18208e-11 1.51264e-11)
(-3.41344e-11 3.69707e-12 4.05737e-11)
(-5.03181e-12 -4.22953e-11 1.24233e-10)
(2.61076e-12 -2.81147e-12 4.60613e-12)
(-2.02611e-10 1.22538e-10 -1.8966e-10)
(-2.71321e-10 -5.02134e-12 -1.67463e-11)
(-3.24226e-11 -1.22955e-11 1.41572e-11)
(-9.57806e-13 -6.25015e-13 9.052e-13)
(-4.84029e-15 -1.56025e-14 2.59778e-14)
(9.10108e-16 -2.49268e-16 1.10877e-16)
(6.59198e-17 -7.99281e-18 -5.23707e-17)
(1.05349e-17 -4.12149e-18 -1.69469e-17)
(2.7751e-17 -2.76541e-17 -5.45747e-17)
(2.28833e-17 -1.333e-17 -6.5471e-18)
(7.52212e-17 -1.47551e-17 3.38093e-17)
(-6.14529e-17 -4.73009e-18 -5.36732e-17)
(7.99902e-17 1.97246e-17 9.44928e-17)
(5.74317e-17 3.21302e-17 1.10708e-16)
(-1.43802e-17 3.30802e-17 8.11512e-17)
(0 0 0)
(-1.87343e-16 -3.41418e-17 -2.68378e-16)
(3.76518e-16 -1.00711e-16 8.31796e-16)
(-5.70228e-18 5.72895e-18 -1.71244e-17)
(7.31586e-18 -9.94088e-18 1.56665e-17)
(-4.87319e-17 1.36899e-17 -4.0715e-17)
(1.65668e-17 5.1014e-18 5.35942e-18)
(2.40312e-17 1.41776e-17 4.08558e-18)
(4.52653e-18 3.24809e-18 2.04515e-19)
(-8.68552e-18 -5.04414e-18 3.48715e-18)
(1.70791e-17 7.08782e-18 -2.17825e-17)
(-9.0803e-19 -1.12135e-18 1.08812e-18)
(1.2721e-18 4.16951e-18 5.37176e-18)
(-3.06986e-17 1.43205e-17 -1.12613e-16)
(8.70398e-15 -1.10037e-14 4.88945e-15)
(-3.36616e-13 3.39779e-13 5.66407e-14)
(-2.07193e-12 1.34224e-12 5.00431e-13)
(-3.77492e-13 8.10324e-14 9.02069e-14)
(-1.82122e-15 -2.50267e-14 9.98422e-15)
(2.46638e-15 -3.29054e-15 9.14264e-16)
(6.40484e-15 -6.68987e-15 1.97882e-15)
(-1.30311e-13 1.03112e-13 -3.19733e-14)
(1.52757e-13 3.84397e-14 -1.04077e-13)
(9.11186e-14 2.00284e-13 -3.19471e-13)
(4.79714e-15 -2.6573e-14 4.65542e-14)
(-5.07181e-13 4.08583e-13 -7.82516e-13)
(-1.14561e-12 6.79809e-14 -2.90842e-13)
(-1.42202e-13 -6.59941e-14 9.01845e-14)
(-4.66398e-15 -6.48216e-15 9.6835e-15)
(-5.72786e-17 -2.66855e-16 3.53815e-16)
(-6.97089e-18 -2.11995e-17 1.21973e-17)
(1.09422e-17 7.97411e-18 2.09623e-17)
(-7.38997e-18 -6.34425e-18 -2.37059e-17)
(-1.10857e-17 -2.44523e-17 -8.37699e-17)
(-6.02645e-18 6.95349e-18 1.96194e-17)
(2.17347e-17 -4.23469e-18 -3.64075e-18)
(-1.37872e-16 -1.09517e-17 -8.82855e-17)
(5.38716e-18 1.29691e-18 5.43112e-18)
(-7.89275e-17 -3.13894e-17 -1.09405e-16)
(-2.90907e-17 -2.26025e-17 -8.04465e-17)
(-3.7686e-18 -1.08274e-18 -3.05755e-19)
(9.49828e-18 4.83627e-18 1.20894e-17)
(3.40334e-18 6.51138e-19 9.42288e-18)
(3.28114e-18 -1.22241e-18 1.09214e-17)
(-1.33266e-17 1.03456e-17 -1.03945e-17)
(-1.46398e-17 2.49781e-18 1.82075e-19)
(-1.2586e-17 -2.52285e-18 9.61391e-19)
(-1.21302e-19 2.4817e-19 3.12335e-19)
(2.5255e-17 1.36605e-17 9.49648e-18)
(-2.77785e-18 -1.53991e-18 -2.67434e-18)
(-1.75031e-18 -3.87626e-18 -4.75662e-19)
(-2.55872e-18 -3.75686e-18 -4.92051e-18)
(3.52005e-18 4.1552e-19 1.33608e-18)
(5.31438e-18 2.59773e-19 4.56786e-18)
(3.22004e-17 -2.00572e-17 1.13599e-17)
(-7.71535e-16 6.53421e-16 2.9657e-17)
(-1.41421e-14 1.06837e-14 3.89001e-15)
(-2.97907e-15 6.95634e-16 1.41757e-15)
(1.04449e-16 -3.89319e-16 6.82459e-17)
(-1.12325e-17 1.60254e-17 6.72405e-20)
(-1.21214e-17 1.26676e-17 -1.24051e-18)
(2.78205e-16 -2.00051e-16 7.20006e-17)
(-2.34588e-16 -2.97895e-16 1.66643e-16)
(-1.15292e-16 -5.42421e-16 5.36266e-16)
(-4.77496e-17 -1.62139e-16 2.23761e-16)
(7.19615e-16 1.60573e-15 -2.77308e-15)
(2.07645e-15 -6.82242e-17 -1.58657e-15)
(5.67378e-16 -6.96729e-16 6.52949e-16)
(3.39427e-17 -1.0541e-16 1.09323e-16)
(-1.66968e-17 -1.85932e-17 1.72838e-17)
(-5.30129e-17 -1.12989e-17 4.84218e-18)
(-5.0628e-17 -4.5821e-18 -7.94504e-18)
(1.70355e-17 2.67133e-18 7.26747e-18)
(-3.21092e-17 -1.64899e-17 -3.99729e-17)
(4.06143e-18 7.41646e-18 2.39076e-17)
(2.3532e-17 -6.61688e-19 -2.17339e-17)
(6.83562e-17 1.42805e-17 2.75639e-17)
(1.93154e-17 5.80583e-18 1.69514e-17)
(2.59792e-17 1.0294e-17 2.99797e-17)
(-7.83399e-17 -3.84262e-17 -1.12978e-16)
(2.58494e-17 8.94424e-18 4.19994e-17)
(2.19879e-18 2.62739e-18 8.15853e-18)
(3.50106e-18 2.12449e-18 1.62876e-17)
(6.41551e-18 -1.01345e-18 9.89215e-18)
(2.65826e-20 -1.49232e-19 -2.83685e-18)
(-7.85696e-18 -2.11883e-19 1.2658e-18)
(5.58703e-17 9.05136e-18 -5.82354e-18)
(6.77534e-17 1.74774e-17 2.25306e-18)
(5.2475e-17 1.77258e-17 1.41684e-17)
(-1.13359e-17 -4.27134e-18 -1.97198e-17)
(8.35962e-18 6.65789e-18 -4.53547e-18)
(-5.91915e-18 -5.40976e-18 1.02747e-18)
(0 0 0)
(1.32229e-17 -4.13062e-18 3.73385e-18)
(-2.60473e-17 1.01849e-17 -5.36851e-18)
(-3.95186e-17 2.08654e-17 -1.29282e-18)
(-1.67203e-16 9.00409e-17 3.08148e-17)
(-1.68734e-17 -3.06234e-18 5.3708e-18)
(-1.6291e-17 3.31458e-17 4.29286e-18)
(7.53684e-17 -7.82934e-17 -7.52226e-18)
(-3.25838e-17 2.48407e-17 -3.79322e-18)
(-5.61933e-18 1.10916e-18 -3.74148e-18)
(3.7718e-18 4.80029e-18 3.28099e-18)
(-1.27848e-18 -1.90486e-17 1.27907e-17)
(-1.44225e-18 3.3854e-18 -1.58984e-18)
(2.08113e-17 1.14498e-17 -2.41651e-17)
(5.8029e-17 -8.22836e-18 -1.44679e-17)
(3.96321e-17 -2.17945e-17 1.35399e-17)
(-7.46404e-18 1.44227e-17 -1.48653e-17)
(0 0 0)
(-8.27784e-17 -1.24956e-18 2.38454e-18)
(2.38794e-17 2.48641e-18 1.42463e-18)
(9.37216e-18 6.7611e-18 3.1449e-18)
(-9.20728e-18 -1.67506e-17 -1.40452e-17)
(-9.60412e-18 -8.23286e-18 -2.02755e-17)
(-2.64016e-19 -1.04624e-18 -5.0003e-19)
(-1.45014e-18 -4.32327e-18 3.68802e-18)
(0 0 0)
(-3.58306e-17 -1.53054e-17 -4.15993e-17)
(-6.165e-17 -2.40984e-17 -6.82546e-17)
(1.5075e-17 4.6791e-18 1.38209e-17)
(2.80843e-18 -9.75284e-19 -2.25195e-18)
(6.48504e-19 -9.46528e-21 3.02954e-19)
(-1.80606e-18 -1.46992e-18 -1.04641e-18)
(-9.61528e-18 6.48941e-19 3.45582e-18)
(1.66701e-17 -1.38463e-19 -4.43751e-18)
(6.04933e-17 4.38697e-18 -1.11728e-17)
(4.20294e-17 1.57067e-17 -9.4532e-19)
(8.60376e-18 1.42237e-17 7.47331e-18)
(2.02189e-17 -1.58832e-17 -3.25837e-17)
(-8.80792e-18 -2.75243e-18 8.52936e-18)
(-1.42672e-17 -1.69846e-17 9.60584e-18)
(1.61607e-18 1.54446e-17 -4.09848e-19)
(3.68409e-17 -2.6997e-17 -6.24434e-18)
(1.43789e-17 -3.98946e-18 8.35016e-21)
(-1.74512e-17 4.61286e-18 -1.72755e-18)
(-2.16524e-17 5.33511e-18 -2.77978e-18)
(7.78667e-18 4.07938e-18 7.16405e-18)
(3.57241e-17 -3.56629e-17 -1.5051e-17)
(1.28849e-17 -8.22888e-18 1.90411e-18)
(-3.2774e-18 1.92591e-18 -7.93875e-19)
(-7.60086e-18 1.75981e-18 -7.6908e-18)
(-7.68413e-18 -1.41498e-17 -2.25491e-17)
(5.14486e-18 -3.75382e-17 1.05948e-18)
(-7.25434e-18 -2.75563e-17 2.20756e-17)
(-2.41851e-17 -1.15323e-17 2.8813e-17)
(-1.02334e-17 5.45247e-18 8.51744e-18)
(1.00959e-17 2.03269e-17 7.04497e-18)
(-5.28967e-17 -1.28576e-17 -5.26251e-18)
(1.10631e-16 9.70575e-18 9.04855e-18)
(-9.81282e-18 -5.81047e-18 1.97638e-18)
(-1.40751e-17 2.47762e-17 -1.32062e-17)
(-2.25484e-17 1.92169e-17 -5.61188e-18)