/*--------------------------------*- C++ -*----------------------------------*\
| =========                 |                                                 |
| \\      /  F ield         | OpenFOAM: The Open Source CFD Toolbox           |
|  \\    /   O peration     | Version:  5.0                                   |
|   \\  /    A nd           | Web:      www.OpenFOAM.org                      |
|    \\/     M anipulation  |                                                 |
\*---------------------------------------------------------------------------*/
FoamFile
{
    version     2.0;
    format      ascii;
    class       volVectorField;
    location    "50.4676134421789371";
    object      turbDiff;
}
// * * * * * * * * * * * * * * * * * * * * * * * * * * * * * * * * * * * * * //

dimensions      [0 3 -3 0 0 0 0];

internalField   nonuniform List<vector> 
60000
(
(6.4469e-12 1.54135e-12 3.84721e-11)
(-1.9178e-11 2.01334e-12 3.4423e-11)
(-5.35454e-11 2.35925e-12 3.13336e-11)
(-4.92527e-11 8.17665e-13 5.59696e-12)
(-1.30349e-11 -6.36719e-14 -7.67108e-12)
(-1.025e-12 -4.1397e-14 -1.2124e-11)
(6.28219e-12 -1.30242e-13 -1.73746e-11)
(1.08802e-11 -9.05728e-14 -1.05345e-11)
(2.68864e-11 1.04791e-14 -1.64211e-12)
(5.52173e-11 -1.95138e-13 2.26904e-11)
(4.54511e-11 5.82015e-13 3.50789e-11)
(1.37088e-11 6.19198e-13 1.70879e-11)
(2.63909e-12 1.80628e-13 4.18083e-12)
(1.77039e-12 9.4677e-14 1.03949e-12)
(3.89112e-12 2.43475e-13 -6.98936e-13)
(6.18481e-12 5.78209e-13 -7.00893e-12)
(9.47719e-12 2.37569e-13 -2.84696e-11)
(2.63653e-11 -1.66331e-12 -7.03132e-11)
(1.14189e-10 -6.51392e-12 -1.7502e-10)
(3.87422e-10 -1.17166e-11 -3.25904e-10)
(1.00283e-09 -1.74616e-11 -3.65549e-10)
(2.04888e-09 -1.04757e-11 -1.07331e-10)
(2.72521e-09 1.02656e-11 3.98248e-10)
(3.07954e-09 8.83439e-12 7.84599e-10)
(4.10754e-09 -2.81727e-11 9.81433e-10)
(5.63735e-09 -6.86056e-11 1.03379e-09)
(5.83352e-09 -5.77092e-11 9.81941e-10)
(3.41798e-09 -1.39638e-11 7.5482e-10)
(9.42408e-10 3.66456e-12 3.05122e-10)
(1.59026e-10 2.57284e-12 4.08885e-11)
(1.30731e-10 2.85116e-12 -3.64828e-11)
(3.91222e-10 8.89855e-12 -2.08423e-10)
(6.62783e-10 1.5165e-11 -4.02552e-10)
(4.97003e-10 1.11579e-11 -4.19322e-10)
(1.26148e-10 3.4394e-12 -2.84258e-10)
(-2.33428e-11 -2.12018e-13 -1.45171e-10)
(-6.26061e-13 1.25765e-13 -6.86955e-12)
(2.0101e-11 6.61174e-13 1.19631e-11)
(6.55479e-11 1.70685e-12 6.07387e-11)
(4.07453e-11 1.76511e-12 5.85419e-11)
(4.31222e-10 6.12631e-11 4.86851e-10)
(1.35558e-11 1.4198e-11 7.71215e-11)
(-4.53067e-11 4.77148e-12 1.96278e-11)
(-1.41915e-10 -4.41562e-12 -2.82877e-11)
(-1.18432e-10 -1.20061e-11 -1.09732e-10)
(-2.44517e-11 -4.63713e-12 -1.82334e-10)
(5.29199e-11 7.65145e-13 -1.33824e-10)
(7.14107e-11 1.35085e-12 -2.69418e-11)
(4.59852e-10 -4.89726e-13 2.07773e-10)
(1.57629e-09 2.85682e-11 1.06209e-09)
(1.86221e-09 8.75975e-11 1.36515e-09)
(8.27271e-10 6.14159e-11 6.29219e-10)
(1.33404e-10 8.06889e-12 8.62632e-11)
(2.6778e-11 -9.48448e-13 -3.44133e-12)
(1.10811e-10 -5.24441e-12 -9.17542e-11)
(4.36205e-10 -1.75923e-11 -4.36451e-10)
(8.79811e-10 -5.52111e-11 -8.98349e-10)
(1.37227e-09 -9.56552e-11 -1.23447e-09)
(2.05911e-09 -6.21464e-11 -1.64666e-09)
(2.83018e-09 6.36672e-11 -1.67999e-09)
(4.17353e-09 1.62013e-10 -7.34185e-10)
(9.62274e-09 2.54282e-10 2.13802e-09)
(1.90931e-08 1.44792e-10 7.43914e-09)
(2.95584e-08 -6.32906e-10 1.03887e-08)
(4.58082e-08 -2.00521e-09 1.01629e-08)
(6.72568e-08 -3.28047e-09 7.70381e-09)
(7.62731e-08 -2.76451e-09 5.02566e-09)
(5.5615e-08 -8.65251e-10 3.89569e-09)
(2.21121e-08 1.49217e-10 2.32343e-09)
(4.79441e-09 1.04777e-10 4.31932e-10)
(1.77152e-09 1.91392e-11 -3.27696e-10)
(3.53994e-09 1.15439e-11 -1.52008e-09)
(7.77837e-09 1.20453e-10 -3.50751e-09)
(9.22049e-09 2.44492e-10 -4.35901e-09)
(4.1578e-09 1.7239e-10 -2.79858e-09)
(3.3923e-10 1.63817e-11 -6.43668e-10)
(-7.65822e-12 -1.98248e-12 -2.35475e-11)
(8.87444e-11 -2.99077e-12 9.67056e-11)
(1.10539e-09 3.68421e-11 9.58384e-10)
(1.2858e-09 9.24893e-11 1.11004e-09)
(1.63459e-09 1.96199e-10 1.15773e-09)
(3.31171e-10 8.00143e-11 2.68814e-10)
(8.30097e-12 3.37316e-12 5.7117e-12)
(-2.5046e-12 -6.81224e-13 -3.62552e-12)
(-4.74404e-11 -1.42195e-11 -5.43622e-11)
(-8.67398e-11 -1.89301e-11 -2.03037e-10)
(3.82668e-12 -3.51109e-12 -2.20941e-10)
(4.05933e-11 2.74202e-12 -3.9714e-11)
(3.04626e-10 -5.02393e-12 1.57759e-10)
(1.93447e-09 2.86671e-11 1.54028e-09)
(3.22775e-09 1.75034e-10 2.52598e-09)
(1.97612e-09 2.01729e-10 1.4621e-09)
(4.14809e-10 5.05758e-11 2.68239e-10)
(3.72645e-11 2.88544e-13 1.1176e-12)
(1.0105e-10 -1.3988e-11 -9.15293e-11)
(6.14968e-10 -8.74388e-11 -5.41994e-10)
(1.432e-09 -2.29414e-10 -1.16845e-09)
(1.50278e-09 -2.69544e-10 -1.23459e-09)
(1.09645e-09 -9.02142e-11 -1.04962e-09)
(8.04835e-10 1.28253e-10 -6.8494e-10)
(8.0222e-10 2.17773e-10 -8.95219e-11)
(3.89415e-09 5.78309e-10 2.46162e-09)
(1.33778e-08 3.96411e-10 1.07013e-08)
(2.08755e-08 -1.30914e-09 1.29314e-08)
(2.6911e-08 -3.04051e-09 9.21345e-09)
(3.42761e-08 -4.10309e-09 4.28797e-09)
(3.64331e-08 -3.17887e-09 3.13571e-10)
(2.67068e-08 -9.84922e-10 -7.46843e-10)
(1.14382e-08 2.15176e-10 -2.00135e-10)
(2.54714e-09 1.72393e-10 -3.5034e-11)
(5.14393e-10 2.88456e-11 -9.99829e-11)
(6.81278e-10 -1.33493e-11 -3.43001e-10)
(2.26668e-09 -1.54028e-11 -1.19529e-09)
(4.59508e-09 1.17981e-10 -2.22153e-09)
(3.83702e-09 2.27086e-10 -2.06983e-09)
(8.18155e-10 7.17656e-11 -7.17578e-10)
(5.57628e-12 -2.52125e-12 -5.07933e-11)
(1.80166e-12 -1.92411e-12 3.58918e-12)
(6.86791e-10 -3.37067e-11 5.42608e-10)
(2.30035e-09 9.38546e-11 1.57753e-09)
(1.04356e-09 2.13551e-10 1.13452e-09)
(2.35944e-10 1.25653e-10 3.64454e-10)
(2.73221e-14 5.68218e-12 9.66575e-12)
(-1.47143e-11 -2.17223e-12 -1.01602e-11)
(-1.03966e-10 -2.86215e-11 -7.31584e-11)
(-3.06818e-10 -5.04999e-11 -2.50055e-10)
(-3.26395e-10 -2.55201e-11 -4.38733e-10)
(-5.09633e-11 5.87165e-12 -1.19919e-10)
(5.6202e-12 -1.59443e-13 4.92656e-12)
(6.46934e-10 -3.38889e-12 8.60867e-10)
(2.01376e-09 1.5905e-10 2.39279e-09)
(1.21808e-09 2.47968e-10 1.45681e-09)
(1.02992e-10 5.32032e-11 1.88658e-10)
(-4.89668e-12 8.67692e-13 5.19802e-13)
(-2.46039e-11 -1.56481e-11 -7.47778e-11)
(2.10049e-10 -1.01739e-10 -4.18086e-10)
(8.6837e-10 -2.86008e-10 -9.94265e-10)
(5.42426e-10 -2.41572e-10 -7.95854e-10)
(2.52669e-11 -5.66585e-11 -5.09111e-10)
(-1.69133e-10 1.30376e-10 -3.91105e-10)
(-3.7925e-11 1.05441e-10 -1.85964e-11)
(6.78678e-10 5.7599e-10 1.63498e-09)
(7.04693e-09 5.2935e-10 1.15929e-08)
(1.065e-08 -1.71348e-09 1.22319e-08)
(8.72828e-09 -2.37575e-09 5.40765e-09)
(7.05925e-09 -1.99181e-09 1.18717e-09)
(5.56724e-09 -1.07097e-09 -6.84588e-10)
(3.05033e-09 -1.30381e-10 -8.55708e-10)
(6.71057e-10 1.23519e-10 -2.89274e-10)
(8.31957e-12 2.32227e-11 -2.80869e-11)
(-1.39196e-10 3.73882e-11 -6.97676e-11)
(-2.20313e-10 5.13084e-12 -1.4159e-10)
(-5.81064e-11 -7.35514e-12 -1.51587e-10)
(1.01019e-10 1.24655e-11 -3.1165e-10)
(2.68387e-10 7.30208e-11 -5.25485e-10)
(7.54849e-12 5.53979e-11 -3.31735e-10)
(-3.44473e-10 7.74833e-12 -2.46191e-10)
(-3.99435e-10 -6.05279e-11 -2.46132e-11)
(-9.90485e-12 -2.01114e-11 6.62007e-11)
(6.99089e-10 1.02012e-12 7.54718e-10)
(7.42496e-10 1.99266e-10 1.15934e-09)
(3.81466e-10 3.34705e-10 1.01446e-09)
(-4.17598e-11 5.63944e-11 1.32904e-10)
(-1.00347e-10 -2.73119e-12 -8.22059e-12)
(-3.46852e-10 -6.81746e-11 -1.37102e-10)
(-8.48729e-10 -1.12102e-10 -3.71215e-10)
(-1.28041e-09 -8.35412e-11 -8.55836e-10)
(-7.70386e-10 6.96085e-12 -6.93612e-10)
(-8.13719e-11 -9.76764e-14 -4.01379e-11)
(3.59533e-11 -1.36511e-11 2.54582e-10)
(1.32522e-09 1.3714e-10 2.55155e-09)
(1.66613e-09 5.12827e-10 2.80306e-09)
(1.71247e-10 1.98045e-10 6.12953e-10)
(-8.5837e-11 2.16976e-11 3.34617e-11)
(-2.03288e-10 -4.25246e-11 -1.81896e-10)
(9.95246e-11 -1.84583e-10 -6.17701e-10)
(1.04696e-09 -4.86493e-10 -1.44054e-09)
(5.24938e-10 -3.23764e-10 -9.58123e-10)
(-3.37974e-10 -9.07924e-11 -7.16941e-10)
(-2.47968e-09 6.35399e-10 -1.71017e-09)
(-1.84011e-09 1.13509e-09 -4.59718e-10)
(-3.20744e-10 9.11186e-10 1.54648e-09)
(5.78118e-09 1.01741e-09 1.43856e-08)
(1.16038e-08 -2.99936e-09 1.758e-08)
(7.25012e-09 -3.31448e-09 6.5174e-09)
(3.10694e-09 -1.64418e-09 8.6519e-10)
(1.61989e-09 -6.19879e-10 -4.17407e-10)
(9.34635e-10 -5.15513e-11 -5.37704e-10)
(2.98369e-10 1.42922e-10 -2.81553e-10)
(-4.11146e-11 9.96896e-11 -1.11084e-10)
(-7.32967e-10 2.09833e-10 -2.62375e-10)
(-1.73776e-09 1.15988e-10 -4.49396e-10)
(-1.41622e-09 -1.46189e-11 -5.00467e-10)
(-6.9957e-10 4.58017e-12 -4.75392e-10)
(-4.02776e-10 8.08984e-11 -6.11697e-10)
(-4.9257e-10 1.59076e-10 -8.60833e-10)
(-1.36515e-09 8.77925e-11 -9.46287e-10)
(-2.16418e-09 -2.01663e-10 -5.17647e-10)
(-5.75972e-10 -1.4164e-10 7.30254e-11)
(2.68919e-11 -2.72475e-11 1.73278e-10)
(1.93218e-10 2.57028e-11 3.55064e-10)
(7.6179e-10 4.99218e-10 1.494e-09)
(1.20944e-10 2.48004e-10 6.65839e-10)
(-3.79338e-11 7.05063e-12 3.29674e-11)
(-1.97258e-10 -4.66604e-11 -5.33294e-11)
(-7.07189e-10 -1.09784e-10 -2.41972e-10)
(-1.56012e-09 -1.09834e-10 -7.40805e-10)
(-1.92041e-09 -3.90423e-11 -1.30814e-09)
(-1.00914e-09 -1.11308e-11 -5.78447e-10)
(-1.86216e-10 -1.87574e-11 7.46361e-11)
(1.49506e-10 3.95086e-11 1.40826e-09)
(1.80449e-09 7.8261e-10 4.06706e-09)
(8.91063e-10 7.45628e-10 2.12804e-09)
(-3.28803e-11 7.64143e-11 1.26205e-10)
(-7.29719e-11 -1.33692e-11 -9.0221e-11)
(3.9892e-10 -4.00082e-10 -1.17283e-09)
(2.77978e-09 -1.19694e-09 -3.05127e-09)
(1.45468e-09 -6.39125e-10 -1.54575e-09)
(-1.40195e-10 -7.55012e-11 -3.71868e-10)
(-5.44539e-09 1.06808e-09 -2.52315e-09)
(-9.49658e-09 4.0406e-09 -2.32904e-09)
(-1.93461e-09 1.92774e-09 1.80525e-09)
(4.98318e-09 1.74075e-09 1.52319e-08)
(1.60679e-08 -4.66162e-09 2.49582e-08)
(8.29821e-09 -5.1715e-09 8.98207e-09)
(1.99319e-09 -1.81419e-09 8.84486e-10)
(7.74866e-10 -5.47378e-10 -2.52374e-10)
(6.28099e-10 -9.29569e-11 -3.775e-10)
(6.13647e-10 2.05786e-10 -3.59014e-10)
(3.13157e-10 2.5748e-10 -2.1461e-10)
(-5.14264e-12 8.52232e-11 -6.48078e-11)
(-3.09742e-10 9.4223e-11 -1.16407e-10)
(-1.12263e-09 5.49318e-11 -2.47479e-10)
(-1.86439e-09 2.39982e-11 -4.59253e-10)
(-1.91168e-09 1.18203e-10 -8.54982e-10)
(-1.39883e-09 2.34697e-10 -1.24441e-09)
(-1.23266e-09 1.62733e-10 -1.26325e-09)
(-1.66793e-09 -1.36119e-10 -9.30715e-10)
(-1.19123e-09 -3.01161e-10 -3.12721e-10)
(-9.0809e-11 -5.16473e-11 2.83358e-11)
(-6.12371e-12 -7.29405e-12 1.03559e-11)
(2.72851e-10 1.8171e-10 5.5991e-10)
(3.82041e-10 4.10328e-10 1.06008e-09)
(2.85438e-11 4.39874e-11 1.74961e-10)
(-6.17497e-12 -3.64744e-12 2.55361e-12)
(-1.10551e-10 -3.08277e-11 -3.75809e-11)
(-5.91825e-10 -5.29598e-11 -2.48142e-10)
(-1.52969e-09 -6.34934e-11 -9.37317e-10)
(-2.27915e-09 -7.26965e-11 -1.29915e-09)
(-1.81104e-09 -9.88378e-11 -2.32893e-10)
(-9.13471e-10 4.77459e-12 8.72487e-10)
(4.18352e-12 6.72626e-10 3.22215e-09)
(9.45046e-10 1.35107e-09 3.32753e-09)
(1.56902e-10 3.44228e-10 4.72452e-10)
(3.94966e-11 9.62341e-12 -6.74842e-11)
(2.12513e-09 -9.83427e-10 -2.91932e-09)
(7.31649e-09 -2.92218e-09 -6.8042e-09)
(3.3335e-09 -1.29241e-09 -2.51314e-09)
(2.18379e-11 -2.84905e-11 -7.68472e-11)
(-4.91051e-09 1.06368e-09 -1.23897e-09)
(-2.34793e-08 8.04495e-09 -4.2884e-09)
(-8.21955e-09 4.97852e-09 2.48607e-09)
(1.72129e-09 2.06242e-09 1.17853e-08)
(1.35405e-08 -4.99316e-09 2.45782e-08)
(5.57842e-09 -5.65645e-09 8.18961e-09)
(1.20185e-09 -1.99046e-09 8.07631e-10)
(6.02311e-10 -6.1209e-10 -1.5977e-10)
(5.43138e-10 -1.25308e-10 -2.54364e-10)
(6.42867e-10 1.68345e-10 -2.9125e-10)
(8.74692e-10 4.14566e-10 -3.06795e-10)
(7.74623e-10 3.985e-10 -1.99775e-10)
(1.63582e-10 1.1142e-10 -4.55665e-11)
(-1.41653e-11 1.51669e-11 -6.1799e-12)
(-8.13507e-10 1.07545e-10 -8.68205e-11)
(-3.37819e-09 2.60667e-10 -6.07416e-10)
(-4.12853e-09 3.69496e-10 -1.57205e-09)
(-2.2581e-09 2.1676e-10 -1.6457e-09)
(-1.16838e-09 -5.02145e-11 -1.06339e-09)
(-9.27904e-10 -2.53379e-10 -6.35034e-10)
(-3.86708e-10 -1.86542e-10 -1.85796e-10)
(-1.44381e-10 -8.7635e-11 -1.03299e-10)
(-1.34708e-11 5.85174e-12 3.88229e-11)
(5.50395e-11 1.74405e-10 4.7423e-10)
(4.57952e-11 6.01424e-11 2.6672e-10)
(1.44239e-11 -6.08484e-12 2.31805e-11)
(3.34422e-12 -2.48502e-12 3.22599e-13)
(-4.42151e-12 -9.0198e-13 -4.92069e-12)
(-2.0655e-10 -8.14652e-12 -1.78215e-10)
(-1.31216e-09 -6.35354e-11 -8.97166e-10)
(-3.88781e-09 -1.48892e-10 -9.15539e-10)
(-5.47143e-09 1.46559e-11 1.25292e-09)
(-2.94747e-09 8.45708e-10 3.13246e-09)
(-3.46482e-10 1.53409e-09 2.7706e-09)
(3.15474e-10 6.14581e-10 5.61302e-10)
(8.54492e-10 1.45805e-10 -5.16386e-10)
(8.22224e-09 -2.44539e-09 -7.32017e-09)
(1.31729e-08 -5.2627e-09 -1.05338e-08)
(4.78074e-09 -2.07673e-09 -2.99673e-09)
(1.29906e-10 -4.72441e-11 -4.28305e-11)
(-1.83285e-09 6.77048e-10 5.66845e-11)
(-2.82912e-08 9.91435e-09 -2.32906e-09)
(-2.34052e-08 1.05468e-08 3.03443e-09)
(-2.40454e-09 2.16168e-09 8.03131e-09)
(4.52071e-09 -3.63595e-09 1.52736e-08)
(2.40525e-09 -5.23885e-09 5.75806e-09)
(1.0738e-09 -2.60462e-09 8.97215e-10)
(8.37885e-10 -8.66022e-10 -3.06318e-11)
(6.90129e-10 -1.66153e-10 -1.68901e-10)
(6.73044e-10 1.4431e-10 -2.36767e-10)
(9.01769e-10 3.40768e-10 -2.75893e-10)
(1.55368e-09 4.80884e-10 -2.19865e-10)
(2.06436e-09 5.14383e-10 -4.87056e-12)
(9.23873e-10 2.95678e-10 1.0382e-10)
(7.81157e-12 2.91703e-11 1.01216e-11)
(-1.06323e-09 2.67185e-10 -5.74356e-11)
(-4.97786e-09 5.7293e-10 -1.01729e-09)
(-4.71359e-09 3.14362e-10 -1.88171e-09)
(-1.80573e-09 -1.85421e-11 -1.30255e-09)
(-7.36146e-10 -1.72607e-10 -7.90328e-10)
(-5.21487e-10 -2.58642e-10 -5.76568e-10)
(-4.76376e-10 -2.54146e-10 -6.32933e-10)
(-1.8128e-10 -3.83473e-11 -3.30847e-11)
(-2.15269e-10 5.19942e-11 2.40316e-10)
(-1.08611e-10 2.07393e-11 2.44925e-10)
(1.0152e-11 -1.5339e-11 3.65817e-11)
(1.01676e-10 -2.97817e-11 1.65136e-11)
(1.7923e-10 -3.82387e-12 -1.34114e-11)
(7.00375e-11 4.39176e-12 -4.43225e-11)
(-4.50786e-11 -1.80444e-12 -1.37112e-10)
(-1.76492e-09 -8.98255e-12 -6.23579e-10)
(-1.0981e-08 2.4935e-10 1.01047e-09)
(-1.31173e-08 2.04508e-09 4.8856e-09)
(-2.46785e-09 1.97135e-09 2.17905e-09)
(2.55593e-10 5.5901e-10 1.60218e-10)
(3.84265e-09 3.94032e-10 -2.15885e-09)
(1.5263e-08 -4.18589e-09 -1.04647e-08)
(1.43984e-08 -6.57874e-09 -9.41281e-09)
(4.09653e-09 -2.39938e-09 -2.22057e-09)
(2.39582e-10 -9.21231e-11 -2.07656e-11)
(-3.0751e-10 3.34233e-10 1.93824e-10)
(-1.5954e-08 7.95864e-09 8.10172e-10)
(-3.49819e-08 1.48003e-08 3.55591e-09)
(-8.48021e-09 3.00423e-09 7.34662e-09)
(-1.10297e-09 -2.34468e-09 7.0833e-09)
(3.68424e-10 -5.00941e-09 3.81825e-09)
(1.14287e-09 -3.38156e-09 1.15342e-09)
(1.20718e-09 -1.11884e-09 2.46932e-10)
(9.08226e-10 -1.72692e-10 -5.76161e-11)
(7.93893e-10 1.59138e-10 -2.13119e-10)
(9.83741e-10 2.94929e-10 -2.56514e-10)
(1.75949e-09 3.49652e-10 -1.27235e-10)
(3.24184e-09 4.07682e-10 3.10131e-10)
(3.65602e-09 5.72615e-10 7.52197e-10)
(1.31049e-09 4.51603e-10 4.08502e-10)
(1.26357e-12 7.46446e-11 2.6045e-11)
(-1.39304e-09 4.34629e-10 -2.15492e-10)
(-4.41384e-09 5.06551e-10 -1.29911e-09)
(-3.26032e-09 6.43044e-11 -1.50167e-09)
(-1.22809e-09 -1.29984e-10 -1.03924e-09)
(-6.36888e-10 -2.4189e-10 -9.79672e-10)
(-7.99708e-10 -3.05772e-10 -1.37418e-09)
(-7.78867e-10 -1.77396e-10 -4.4616e-10)
(-7.028e-10 -3.94785e-11 2.41713e-10)
(-3.14739e-10 -6.27089e-11 3.86107e-10)
(3.72676e-12 -6.40463e-11 1.06568e-10)
(9.54461e-11 -5.35409e-11 2.32225e-11)
(2.55168e-10 -2.31223e-11 -5.63289e-11)
(4.11501e-10 1.80915e-11 -1.61215e-10)
(2.51569e-10 8.48408e-12 -1.89316e-10)
(-5.13063e-11 1.16873e-11 -6.99594e-11)
(-5.76482e-09 5.50369e-10 4.68332e-10)
(-2.51223e-08 3.70581e-09 6.02851e-09)
(-9.32981e-09 3.7357e-09 2.44576e-09)
(5.18335e-11 4.49195e-10 -1.6622e-10)
(6.37539e-09 2.09701e-10 -3.96373e-09)
(1.58892e-08 -5.16768e-09 -9.07425e-09)
(1.07438e-08 -6.29127e-09 -5.61902e-09)
(2.67846e-09 -2.20553e-09 -1.22176e-09)
(1.54942e-10 -9.38608e-11 -1.43212e-11)
(-6.67962e-12 2.72938e-10 1.43563e-10)
(-4.43933e-09 4.68328e-09 1.11365e-09)
(-2.485e-08 1.34633e-08 3.03837e-09)
(-1.66424e-08 4.35035e-09 6.027e-09)
(-4.6548e-09 -2.46805e-09 3.98146e-09)
(-1.33575e-09 -5.3318e-09 2.82996e-09)
(1.15943e-09 -3.77242e-09 1.6201e-09)
(1.46947e-09 -1.16084e-09 6.39496e-10)
(9.97836e-10 -1.10852e-10 6.63375e-11)
(8.31594e-10 1.79709e-10 -1.93581e-10)
(1.05833e-09 2.54279e-10 -2.39415e-10)
(2.02963e-09 2.34051e-10 2.92791e-11)
(3.96903e-09 1.7334e-10 8.65204e-10)
(4.91183e-09 3.31404e-10 1.67405e-09)
(2.9289e-09 5.92851e-10 1.21313e-09)
(4.42431e-10 2.91778e-10 2.23321e-10)
(-7.64187e-11 1.20761e-10 -1.10456e-11)
(-1.3503e-09 4.12279e-10 -4.94965e-10)
(-2.70766e-09 2.76297e-10 -1.17756e-09)
(-1.89393e-09 3.17994e-12 -1.21084e-09)
(-9.49509e-10 -1.44272e-10 -1.29971e-09)
(-7.89886e-10 -1.1262e-10 -1.76806e-09)
(-1.08663e-09 -1.98627e-10 -9.43618e-10)
(-8.15234e-10 -1.62059e-10 1.20378e-10)
(-3.17909e-10 -2.20911e-10 5.25463e-10)
(4.223e-11 -2.55516e-10 4.18394e-10)
(5.21606e-11 -7.14941e-11 5.96056e-11)
(3.54835e-11 -1.18911e-11 -2.70683e-11)
(1.98996e-10 1.29218e-11 -2.37159e-10)
(4.13461e-10 1.27811e-12 -4.06777e-10)
(9.81968e-11 1.71412e-11 -1.08238e-10)
(-6.04181e-10 2.05653e-10 9.06567e-11)
(-1.71488e-08 3.74877e-09 4.56515e-09)
(-2.05189e-08 5.82253e-09 3.60312e-09)
(-6.97562e-10 6.1262e-10 -4.31071e-10)
(3.5008e-09 -2.56845e-10 -3.03576e-09)
(1.10958e-08 -4.96277e-09 -6.45163e-09)
(8.20638e-09 -5.80464e-09 -3.77874e-09)
(2.20704e-09 -2.06946e-09 -7.31611e-10)
(9.86613e-11 -9.06955e-11 -8.58932e-12)
(2.16512e-11 1.81053e-10 4.87826e-11)
(-8.96406e-10 3.11851e-09 4.79319e-10)
(-8.93828e-09 8.62753e-09 1.12315e-09)
(-1.58156e-08 4.61412e-09 2.16947e-09)
(-9.17084e-09 -3.51021e-09 2.2533e-09)
(-2.85419e-09 -5.74335e-09 2.31225e-09)
(7.59486e-10 -3.41997e-09 1.9188e-09)
(1.13858e-09 -8.55831e-10 8.08213e-10)
(6.9419e-10 -2.36179e-11 1.13465e-10)
(6.33903e-10 1.56112e-10 -1.63443e-10)
(9.21328e-10 1.76101e-10 -2.14673e-10)
(2.17807e-09 9.87813e-11 1.92142e-10)
(5.10508e-09 -8.16021e-11 1.74311e-09)
(6.57733e-09 6.64419e-11 3.25002e-09)
(3.82167e-09 5.01342e-10 2.30216e-09)
(6.68395e-10 3.37969e-10 4.94205e-10)
(-1.23766e-11 8.5743e-11 1.49167e-11)
(-4.41943e-10 2.52571e-10 -2.19244e-10)
(-1.16241e-09 2.96559e-10 -6.77127e-10)
(-1.19624e-09 1.59668e-10 -8.90716e-10)
(-8.16789e-10 4.81721e-11 -1.22001e-09)
(-3.65856e-10 1.97151e-10 -1.69376e-09)
(-5.72018e-10 -2.43491e-11 -9.12868e-10)
(-3.11349e-10 -1.26476e-10 8.29093e-12)
(-2.034e-10 -3.81155e-10 5.68258e-10)
(7.46812e-12 -4.98521e-10 7.32683e-10)
(-3.1738e-11 -1.25595e-10 1.4295e-10)
(-1.17591e-11 -7.52345e-12 -5.95513e-12)
(-7.51939e-12 6.47057e-12 -1.71858e-10)
(1.78522e-10 2.37295e-12 -4.59489e-10)
(1.99518e-10 2.48793e-11 -2.42397e-10)
(-1.07351e-11 3.47004e-11 5.28671e-12)
(-5.15569e-09 2.10975e-09 2.17863e-09)
(-1.93311e-08 5.8658e-09 4.55783e-09)
(-3.9849e-09 1.2894e-09 -5.72764e-10)
(4.76883e-10 -2.34736e-10 -1.11975e-09)
(6.33302e-09 -3.81624e-09 -4.62896e-09)
(6.44892e-09 -4.92464e-09 -2.74777e-09)
(2.01438e-09 -1.92369e-09 -1.8785e-10)
(1.3063e-10 -1.48553e-10 2.42696e-11)
(3.18378e-12 5.18788e-11 -1.76005e-11)
(-1.87784e-10 2.16212e-09 -3.44674e-10)
(-2.64833e-09 5.62492e-09 -4.8437e-10)
(-7.18494e-09 3.37398e-09 -3.32741e-10)
(-7.10169e-09 -2.44804e-09 4.49055e-10)
(-2.70854e-09 -4.60342e-09 1.72981e-09)
(1.32804e-10 -2.61074e-09 1.80578e-09)
(4.12392e-10 -4.23717e-10 5.65691e-10)
(2.15838e-10 1.05365e-11 5.37541e-11)
(3.30199e-10 9.61249e-11 -1.30924e-10)
(6.26098e-10 8.09497e-11 -2.05739e-10)
(1.80065e-09 -7.67581e-11 1.68468e-10)
(5.57197e-09 -4.6732e-10 2.2832e-09)
(9.16601e-09 -3.19366e-10 5.52791e-09)
(6.0709e-09 5.08854e-10 4.65134e-09)
(1.11319e-09 4.77981e-10 1.17915e-09)
(-2.05978e-11 9.92085e-11 6.06974e-11)
(-3.90197e-10 2.10162e-10 -1.49394e-10)
(-7.20254e-10 2.21067e-10 -4.84784e-10)
(-5.60749e-10 1.52419e-10 -5.89066e-10)
(-3.93123e-10 1.77418e-10 -9.51388e-10)
(-1.03045e-10 4.40709e-10 -1.51751e-09)
(-7.32706e-11 1.63555e-10 -8.03043e-10)
(-1.5028e-11 -1.90164e-11 -1.32386e-11)
(-6.08294e-11 -3.19787e-10 3.02503e-10)
(-1.60928e-10 -5.02292e-10 5.28727e-10)
(-2.95781e-10 -2.70693e-10 2.56115e-10)
(-3.0715e-10 -9.15386e-11 4.06625e-11)
(-1.43105e-10 -5.89245e-12 -9.84212e-11)
(-8.49077e-12 1.02931e-11 -2.62718e-10)
(1.59218e-10 4.12902e-11 -2.99684e-10)
(2.61037e-11 5.25689e-11 -1.21192e-11)
(-1.41626e-09 1.14989e-09 1.10542e-09)
(-1.15941e-08 4.68026e-09 4.64485e-09)
(-7.26626e-09 1.96975e-09 3.37854e-10)
(-2.91158e-10 -1.33428e-10 -6.4737e-10)
(2.34563e-09 -2.04799e-09 -2.55408e-09)
(3.50033e-09 -3.10748e-09 -1.10474e-09)
(1.8887e-09 -1.9516e-09 6.39281e-10)
(4.19478e-10 -4.53663e-10 2.12686e-10)
(3.86816e-11 1.00496e-11 -8.86426e-11)
(-1.63577e-10 1.63001e-09 -1.4699e-09)
(-1.36472e-09 4.82417e-09 -2.23667e-09)
(-2.1074e-09 2.03316e-09 -8.26498e-10)
(-1.56757e-09 -5.70635e-10 3.45025e-11)
(-1.64004e-09 -2.79842e-09 1.30975e-09)
(-6.9144e-10 -1.83513e-09 1.52044e-09)
(-3.63831e-11 -1.72843e-10 2.6954e-10)
(1.4775e-11 3.30451e-12 3.05209e-12)
(1.76648e-10 5.51478e-11 -1.31616e-10)
(4.12225e-10 1.2769e-11 -2.37926e-10)
(1.00993e-09 -1.78784e-10 -3.45108e-11)
(3.85506e-09 -7.2241e-10 1.53986e-09)
(9.90104e-09 -9.13173e-10 6.42581e-09)
(1.02527e-08 4.84235e-10 8.7063e-09)
(3.09958e-09 9.53511e-10 3.62746e-09)
(6.03771e-11 2.13069e-10 2.8988e-10)
(-2.21329e-10 1.30742e-10 -4.63223e-11)
(-5.90545e-10 1.31035e-10 -3.93683e-10)
(-4.95626e-10 8.49867e-11 -5.17959e-10)
(-3.15533e-10 1.90613e-10 -7.86571e-10)
(-1.82953e-10 4.32449e-10 -1.15975e-09)
(1.06671e-10 3.22822e-10 -8.86191e-10)
(3.13148e-11 -1.14706e-11 -7.7665e-11)
(-4.82152e-12 -9.48436e-11 2.20781e-11)
(-2.11668e-10 -3.09702e-10 1.64082e-10)
(-6.64711e-10 -4.06022e-10 2.87586e-10)
(-9.05882e-10 -2.74374e-10 2.92826e-10)
(-3.47491e-10 -5.98966e-11 3.76016e-11)
(-2.62831e-11 -8.69466e-12 -4.91337e-11)
(1.45715e-10 8.46362e-12 -3.12614e-10)
(1.38076e-10 1.28738e-10 -1.62368e-10)
(-3.3719e-10 6.90856e-10 3.26208e-10)
(-7.14699e-09 4.32794e-09 3.98058e-09)
(-9.6803e-09 3.17385e-09 1.97017e-09)
(-1.42573e-09 -4.66914e-11 -7.12363e-10)
(2.32872e-10 -6.95259e-10 -7.26427e-10)
(1.46181e-09 -1.67672e-09 1.01692e-10)
(2.61771e-09 -2.61451e-09 2.0093e-09)
(1.46906e-09 -1.27564e-09 8.30341e-10)
(3.26679e-10 -1.48489e-10 -3.6674e-10)
(-8.39712e-11 1.43793e-09 -3.61042e-09)
(-1.54164e-09 4.20286e-09 -4.89359e-09)
(-9.22898e-10 1.433e-09 -1.13581e-09)
(-2.89038e-10 -6.074e-11 1.43763e-11)
(-1.61611e-09 -1.465e-09 1.03723e-09)
(-1.72361e-09 -1.30604e-09 1.33665e-09)
(-2.10455e-10 -1.29746e-10 2.01837e-10)
(2.39435e-12 3.63325e-13 -6.53758e-13)
(1.80649e-10 2.871e-11 -1.5558e-10)
(3.40729e-10 -3.935e-11 -3.00733e-10)
(4.35949e-10 -1.7913e-10 -1.97074e-10)
(1.28507e-09 -4.90134e-10 2.6334e-10)
(5.80577e-09 -9.78787e-10 3.57498e-09)
(1.27632e-08 2.84225e-10 1.10044e-08)
(8.20726e-09 1.81345e-09 9.57899e-09)
(9.07373e-10 7.18411e-10 1.90488e-09)
(-5.93969e-11 6.26218e-11 4.60515e-11)
(-3.15827e-10 5.07771e-11 -2.14463e-10)
(-4.61047e-10 1.00932e-11 -5.0571e-10)
(-3.88277e-10 1.32377e-10 -6.99251e-10)
(-1.95318e-10 2.65745e-10 -7.24461e-10)
(-2.36426e-11 2.6316e-10 -6.16452e-10)
(4.70435e-12 1.60722e-11 -1.90325e-10)
(-3.86555e-11 -5.36516e-11 -5.30333e-11)
(-2.11415e-10 -1.67949e-10 -1.19107e-11)
(-4.85344e-10 -2.53031e-10 1.35078e-10)
(-6.23862e-10 -2.19744e-10 3.17575e-10)
(-3.58211e-10 -1.09396e-10 2.27959e-10)
(-2.57594e-11 -1.91108e-11 8.83526e-12)
(3.64006e-11 -3.67174e-11 -8.97371e-11)
(1.20505e-10 6.06966e-11 -2.62838e-10)
(-1.34674e-10 4.95704e-10 -7.99309e-11)
(-4.41175e-09 4.16424e-09 1.87035e-09)
(-1.08182e-08 5.25665e-09 2.68707e-09)
(-3.58897e-09 5.54345e-10 -1.78935e-10)
(-1.01741e-10 -1.83426e-10 -4.47345e-11)
(1.30059e-09 -1.734e-09 8.06849e-10)
(4.30311e-09 -4.0864e-09 2.89138e-09)
(2.64913e-09 -2.0856e-09 1.18115e-09)
(5.52258e-10 -1.85772e-10 -3.30317e-10)
(3.2325e-10 1.26638e-09 -3.9594e-09)
(-2.61622e-09 4.31478e-09 -8.45343e-09)
(-2.99284e-09 2.16664e-09 -3.43869e-09)
(-1.9902e-09 1.07243e-10 -3.17579e-10)
(-2.4537e-09 -8.55761e-10 9.60262e-10)
(-1.08475e-09 -6.62964e-10 9.48213e-10)
(-5.36496e-11 -1.08217e-10 1.78698e-10)
(3.56506e-11 -1.27146e-11 1.04895e-11)
(1.32205e-10 -1.52944e-11 -9.40584e-11)
(1.86038e-10 -7.27824e-11 -2.99268e-10)
(1.92352e-10 -1.84273e-10 -4.01155e-10)
(3.01397e-10 -2.19677e-10 -2.06493e-10)
(1.67609e-09 -4.24858e-10 5.8844e-10)
(9.26792e-09 1.6862e-10 7.29331e-09)
(1.42274e-08 2.88261e-09 1.55752e-08)
(4.58933e-09 2.11969e-09 7.7888e-09)
(1.64114e-11 2.39719e-10 6.4813e-10)
(-1.21983e-10 8.51096e-12 -2.76575e-11)
(-3.30224e-10 -6.02654e-11 -4.14738e-10)
(-2.97965e-10 3.94009e-11 -6.18467e-10)
(-1.80729e-10 1.5557e-10 -5.44738e-10)
(-1.24098e-10 1.7202e-10 -2.75859e-10)
(-9.24488e-11 4.06575e-11 -9.04409e-11)
(-2.17301e-10 -6.5356e-11 -7.19892e-11)
(-4.71968e-10 -2.509e-10 -8.39375e-11)
(-3.49673e-10 -2.16488e-10 -3.79068e-11)
(-1.09456e-10 -6.56614e-11 2.35093e-11)
(-4.07468e-11 -1.86249e-11 4.43483e-11)
(-1.3852e-11 -9.43097e-12 2.40679e-11)
(-2.96403e-12 -8.20534e-12 -5.62738e-12)
(-3.04703e-11 -8.57841e-12 -1.38912e-10)
(-3.50406e-10 4.37616e-10 -2.98851e-10)
(-3.6843e-09 3.93976e-09 4.03675e-10)
(-9.10855e-09 6.39081e-09 2.21416e-09)
(-3.57136e-09 1.09493e-09 8.26195e-10)
(-1.26069e-10 -2.75922e-10 1.31907e-10)
(2.11737e-09 -3.11754e-09 8.63351e-10)
(4.35647e-09 -4.71817e-09 1.30921e-09)
(1.70041e-09 -1.47811e-09 4.58699e-10)
(2.28113e-10 -2.21378e-11 -7.17462e-11)
(5.63132e-10 1.0909e-09 -1.71363e-09)
(-2.75037e-10 3.53753e-09 -6.03232e-09)
(-2.00613e-09 2.07666e-09 -3.89114e-09)
(-1.33933e-09 1.93734e-10 -5.36823e-10)
(-9.60778e-10 -3.78097e-10 4.99869e-10)
(-4.86103e-10 -6.05329e-10 9.14036e-10)
(-6.65756e-11 -3.01944e-10 4.11732e-10)
(-8.17211e-12 -3.33381e-11 2.48175e-11)
(-1.86944e-11 -1.75615e-11 -3.04562e-11)
(-1.13266e-10 -8.36641e-11 -3.17547e-10)
(-1.25708e-10 -2.04698e-10 -7.29974e-10)
(1.36031e-10 -2.04075e-10 -6.09107e-10)
(5.21618e-10 -1.22007e-10 -1.58803e-10)
(4.38981e-09 2.21822e-10 2.46605e-09)
(1.4509e-08 3.2191e-09 1.39696e-08)
(1.20934e-08 4.62258e-09 1.62143e-08)
(1.84612e-09 1.25127e-09 4.33318e-09)
(-3.00907e-11 1.21919e-11 9.29954e-11)
(-1.35736e-10 -6.72445e-11 -1.60621e-10)
(-2.40838e-10 -6.357e-11 -6.25882e-10)
(-1.46864e-10 5.47152e-11 -4.88842e-10)
(-1.24807e-10 1.02112e-10 -1.52604e-10)
(-1.92875e-10 5.77886e-11 -2.06929e-11)
(-6.5371e-10 -1.10816e-10 5.50603e-11)
(-1.19455e-09 -4.71121e-10 -5.51831e-11)
(-7.67147e-10 -3.79453e-10 -2.1872e-10)
(-1.17225e-10 -6.19327e-11 -7.51217e-11)
(-2.69451e-13 1.67829e-13 -5.10748e-13)
(2.84608e-12 3.79999e-12 3.95503e-12)
(-9.47553e-14 4.12947e-14 3.95679e-14)
(-8.34509e-11 1.34928e-12 -7.02613e-11)
(-8.87753e-10 4.5834e-10 -4.17979e-10)
(-4.03248e-09 3.30677e-09 -1.09925e-10)
(-6.22332e-09 4.88016e-09 1.51394e-09)
(-1.49453e-09 5.69939e-10 6.24858e-10)
(2.08803e-11 -4.17653e-10 1.15584e-10)
(2.44676e-09 -3.65205e-09 -8.2688e-12)
(3.12948e-09 -3.52835e-09 1.32174e-10)
(7.81306e-10 -6.41264e-10 1.6885e-10)
(3.74169e-11 1.56367e-11 -5.7262e-12)
(1.70589e-10 8.15521e-10 -7.59229e-10)
(6.17913e-10 2.53965e-09 -3.29674e-09)
(4.61133e-10 1.32424e-09 -2.16787e-09)
(6.79092e-11 2.27046e-11 -9.45628e-11)
(2.5447e-10 -2.86568e-10 2.52743e-10)
(4.05168e-10 -9.11516e-10 9.60235e-10)
(-2.19279e-10 -4.84891e-10 4.83545e-10)
(-1.15808e-09 -3.60386e-10 2.33434e-10)
(-2.55365e-09 -2.45714e-10 -3.45472e-10)
(-2.02984e-09 -3.18299e-10 -8.65946e-10)
(-9.3302e-10 -4.10238e-10 -9.8413e-10)
(-2.10148e-10 -2.99549e-10 -9.21979e-10)
(2.23652e-10 -5.21141e-11 -4.19173e-10)
(1.11275e-09 2.01732e-10 1.92658e-10)
(7.67521e-09 2.25913e-09 6.4506e-09)
(1.48486e-08 5.88362e-09 1.71352e-08)
(7.79127e-09 3.78121e-09 1.09827e-08)
(8.13284e-10 3.54973e-10 1.34573e-09)
(1.92584e-12 -3.0448e-12 -1.57919e-12)
(-7.43753e-11 -9.10224e-11 -3.88715e-10)
(-6.33244e-11 -6.10746e-12 -1.81377e-10)
(-1.26949e-10 2.48104e-11 -9.62263e-11)
(-3.68647e-10 1.58438e-11 -2.02292e-13)
(-1.54163e-09 -2.05469e-10 1.75592e-10)
(-2.92982e-09 -6.8181e-10 5.18035e-12)
(-1.50799e-09 -4.87103e-10 -3.38043e-10)
(-1.00444e-10 -3.92296e-11 -1.15409e-10)
(5.62907e-11 4.19281e-11 -6.4361e-11)
(1.31642e-10 1.20313e-10 -2.28508e-11)
(1.43822e-11 3.37084e-11 3.8006e-12)
(-1.05453e-10 5.05643e-11 -2.85053e-11)
(-1.53032e-09 5.55704e-10 -3.5606e-10)
(-4.42964e-09 2.28476e-09 -2.08569e-10)
(-3.57402e-09 1.97826e-09 5.69774e-10)
(-3.1652e-10 2.88752e-11 9.45566e-11)
(2.23097e-10 -5.85546e-10 -6.29429e-11)
(2.33647e-09 -2.66602e-09 -3.72865e-10)
(2.34664e-09 -1.789e-09 2.73183e-10)
(6.51205e-10 -2.42152e-10 3.34735e-10)
(6.16508e-11 7.84616e-11 5.36283e-11)
(2.93439e-11 5.66539e-10 -2.81601e-10)
(4.69396e-10 1.46603e-09 -1.68163e-09)
(1.31886e-09 8.70002e-10 -1.71402e-09)
(1.70611e-09 -1.49816e-10 -5.76285e-10)
(1.89417e-09 -9.29992e-10 4.87984e-10)
(3.35034e-10 -4.87518e-10 4.87085e-10)
(-7.60457e-10 -2.47401e-10 3.97106e-10)
(-5.01096e-09 -1.1137e-10 3.31849e-10)
(-4.70023e-09 -4.89405e-10 -2.80413e-10)
(-1.23775e-09 -6.61066e-10 -3.04145e-10)
(-4.40089e-10 -7.09745e-10 -4.86879e-10)
(-5.36304e-10 -7.2321e-10 -1.10892e-09)
(-5.50157e-10 -1.33107e-10 -1.28006e-09)
(-1.1705e-11 1.21889e-10 -2.03971e-10)
(8.33279e-10 6.06165e-10 6.76819e-10)
(7.30482e-09 3.30904e-09 8.39599e-09)
(1.12998e-08 4.51496e-09 1.27453e-08)
(5.06806e-09 1.64993e-09 4.84348e-09)
(5.75296e-10 7.19908e-11 2.76723e-10)
(3.29947e-11 -1.32753e-11 -5.45714e-11)
(2.84652e-12 1.28717e-12 6.21962e-13)
(-1.84777e-10 1.31896e-11 6.42609e-11)
(-1.99097e-09 3.51759e-11 5.59277e-10)
(-4.46847e-09 -2.6474e-10 8.54401e-10)
(-2.75602e-09 -7.67088e-10 1.84683e-10)
(-3.81097e-10 -4.36318e-10 -1.86143e-10)
(1.96834e-10 -2.60266e-10 -3.932e-10)
(8.49429e-10 2.00104e-10 -8.49852e-10)
(8.46384e-10 8.05236e-10 -6.27288e-10)
(1.38647e-10 4.18407e-10 -7.07573e-11)
(-2.39895e-10 2.38763e-10 4.44803e-11)
(-1.88881e-09 5.53952e-10 2.4003e-11)
(-3.83197e-09 9.95896e-10 -2.90101e-10)
(-1.94596e-09 4.73164e-10 -2.74625e-10)
(-9.44776e-11 -2.81568e-11 -6.30702e-11)
(2.89673e-10 -3.31556e-10 -1.63701e-10)
(1.60905e-09 -1.12364e-09 2.43994e-11)
(1.9629e-09 -1.05082e-09 7.75354e-10)
(8.36622e-10 -2.68389e-10 7.08121e-10)
(8.85058e-11 7.82392e-11 1.8732e-10)
(-2.64666e-11 2.05415e-10 2.52154e-11)
(4.84111e-11 3.78114e-10 -2.42122e-10)
(3.06251e-10 2.03603e-10 -3.97522e-10)