/*--------------------------------*- C++ -*----------------------------------*\
| =========                 |                                                 |
| \\      /  F ield         | OpenFOAM: The Open Source CFD Toolbox           |
|  \\    /   O peration     | Version:  5.0                                   |
|   \\  /    A nd           | Web:      www.OpenFOAM.org                      |
|    \\/     M anipulation  |                                                 |
\*---------------------------------------------------------------------------*/
FoamFile
{
    version     2.0;
    format      ascii;
    class       volVectorField;
    location    "50.4676134421789371";
    object      turbDiffMean;
}
// * * * * * * * * * * * * * * * * * * * * * * * * * * * * * * * * * * * * * //

dimensions      [0 3 -3 0 0 0 0];

internalField   nonuniform List<vector> 
60000
(
(-7.75428e-13 8.57142e-13 1.75385e-11)
(-1.60012e-11 1.2432e-12 1.88257e-11)
(-3.38318e-11 1.25923e-12 1.5571e-11)
(-2.57823e-11 3.1991e-13 1.62115e-12)
(-5.94227e-12 -7.09646e-14 -3.8044e-12)
(-4.03417e-13 -7.07604e-14 -5.50365e-12)
(2.61785e-12 -6.36494e-14 -7.58869e-12)
(4.59858e-12 -3.63526e-14 -4.53995e-12)
(1.13082e-11 -4.06408e-14 -8.07931e-13)
(2.10551e-11 2.9086e-15 8.74565e-12)
(1.49614e-11 3.15373e-13 1.24602e-11)
(3.88413e-12 2.6417e-13 5.88486e-12)
(7.98936e-13 7.71121e-14 1.60899e-12)
(8.37983e-13 4.13724e-14 5.64232e-13)
(1.55156e-12 1.00006e-13 -1.1618e-13)
(1.89795e-12 2.35599e-13 -2.80817e-12)
(2.19405e-12 4.58413e-14 -1.25152e-11)
(8.41669e-12 -9.80011e-13 -3.12148e-11)
(4.86492e-11 -3.68339e-12 -8.13506e-11)
(1.94574e-10 -7.49393e-12 -1.63234e-10)
(5.66868e-10 -1.36398e-11 -2.01685e-10)
(1.18889e-09 -1.04046e-11 -8.30568e-11)
(1.54591e-09 3.15335e-12 1.7347e-10)
(1.69867e-09 4.16777e-12 3.77066e-10)
(2.26128e-09 -1.81298e-11 5.03373e-10)
(3.04985e-09 -3.63794e-11 5.72944e-10)
(2.93703e-09 -1.94393e-11 5.67985e-10)
(1.48488e-09 4.01156e-12 3.98066e-10)
(3.44034e-10 4.36335e-12 1.33935e-10)
(5.89761e-11 1.27165e-12 1.72729e-11)
(6.1247e-11 1.21084e-12 -1.65237e-11)
(1.94384e-10 4.47672e-12 -1.05849e-10)
(3.10282e-10 9.05882e-12 -1.97114e-10)
(2.03441e-10 7.59815e-12 -1.96527e-10)
(3.37803e-11 3.0956e-12 -1.40144e-10)
(-2.69632e-11 -4.45716e-13 -7.42967e-11)
(-1.63721e-13 4.53937e-14 -2.67408e-12)
(1.04787e-11 2.63948e-13 6.5096e-12)
(2.59661e-11 8.16992e-13 2.61076e-11)
(1.32509e-11 8.24923e-13 2.36232e-11)
(1.39693e-10 2.42725e-11 1.76436e-10)
(-6.01316e-12 6.57521e-12 3.23722e-11)
(-6.00118e-11 2.64611e-12 8.84713e-12)
(-1.07891e-10 -4.14828e-12 -2.43728e-11)
(-6.97636e-11 -6.57539e-12 -6.06827e-11)
(-1.40094e-11 -2.27662e-12 -8.25339e-11)
(1.95316e-11 5.56371e-13 -5.20895e-11)
(2.69604e-11 5.41772e-13 -8.49851e-12)
(1.9517e-10 -4.38907e-13 9.90637e-11)
(6.44864e-10 1.47255e-11 4.57941e-10)
(7.12944e-10 3.74553e-11 5.4342e-10)
(2.88776e-10 2.32201e-11 2.26199e-10)
(4.54625e-11 2.56943e-12 2.74245e-11)
(1.26402e-11 -4.17894e-13 -1.41273e-12)
(4.57587e-11 -2.44139e-12 -4.35874e-11)
(1.75107e-10 -7.81743e-12 -1.95115e-10)
(3.46925e-10 -2.28621e-11 -3.80838e-10)
(5.46173e-10 -3.81266e-11 -5.11399e-10)
(8.34024e-10 -2.1677e-11 -6.7202e-10)
(1.15349e-09 2.90566e-11 -6.58519e-10)
(1.76671e-09 6.53943e-11 -2.39547e-10)
(4.25789e-09 1.01941e-10 1.07635e-09)
(8.46972e-09 3.91402e-11 3.35849e-09)
(1.33263e-08 -3.19349e-10 4.51874e-09)
(2.13032e-08 -9.8976e-10 4.37727e-09)
(3.1787e-08 -1.60153e-09 3.29995e-09)
(3.57301e-08 -1.30345e-09 2.21451e-09)
(2.51265e-08 -3.61061e-10 1.78155e-09)
(9.31824e-09 7.76718e-11 1.012e-09)
(1.93077e-09 3.81988e-11 1.74491e-10)
(7.7993e-10 5.08828e-12 -1.366e-10)
(1.58725e-09 6.83258e-12 -6.85608e-10)
(3.45036e-09 6.79722e-11 -1.55685e-09)
(3.93525e-09 1.25736e-10 -1.87199e-09)
(1.62299e-09 7.83388e-11 -1.11701e-09)
(1.071e-10 5.78111e-12 -2.46946e-10)
(-1.84368e-11 -1.6982e-12 -1.15723e-11)
(4.53901e-11 -1.17623e-12 5.79743e-11)
(4.55936e-10 1.93433e-11 4.25587e-10)
(4.79347e-10 4.07004e-11 4.43533e-10)
(6.35932e-10 8.44652e-11 4.64436e-10)
(1.18767e-10 3.03742e-11 9.71295e-11)
(4.14935e-12 1.14486e-12 1.5062e-12)
(-3.59678e-12 -8.21324e-13 -3.50993e-12)
(-3.19401e-11 -8.05535e-12 -3.04403e-11)
(-4.80272e-11 -8.86874e-12 -9.78083e-11)
(-1.54765e-12 -7.31968e-13 -9.28172e-11)
(1.46323e-11 1.05071e-12 -1.34742e-11)
(1.33527e-10 -2.36746e-12 7.85653e-11)
(8.25311e-10 1.65589e-11 6.83901e-10)
(1.30833e-09 7.83121e-11 1.05014e-09)
(7.54327e-10 8.18005e-11 5.71476e-10)
(1.42315e-10 1.76517e-11 9.27795e-11)
(1.27639e-11 -7.43727e-14 -2.35118e-13)
(4.22595e-11 -6.66178e-12 -4.33387e-11)
(2.59298e-10 -3.9457e-11 -2.42128e-10)
(5.79357e-10 -9.75886e-11 -4.96412e-10)
(5.85475e-10 -1.08554e-10 -5.08153e-10)
(4.14245e-10 -2.96607e-11 -4.18653e-10)
(2.94069e-10 5.56368e-11 -2.53339e-10)
(3.01972e-10 8.70709e-11 -1.10665e-11)
(1.68264e-09 2.47617e-10 1.20069e-09)
(5.58472e-09 1.30647e-10 4.6558e-09)
(8.42516e-09 -5.86646e-10 5.24416e-09)
(1.07969e-08 -1.30262e-09 3.57592e-09)
(1.36902e-08 -1.70655e-09 1.53314e-09)
(1.42881e-08 -1.26422e-09 -2.19257e-11)
(1.01991e-08 -3.53864e-10 -3.53413e-10)
(4.22007e-09 9.61746e-11 -8.99722e-11)
(8.98284e-10 6.1647e-11 -1.61072e-11)
(1.82361e-10 8.38342e-12 -3.74745e-11)
(2.63189e-10 -6.14561e-12 -1.41092e-10)
(9.12924e-10 -9.17235e-13 -5.00601e-10)
(1.85557e-09 5.96213e-11 -9.19412e-10)
(1.50931e-09 9.69349e-11 -8.27942e-10)
(2.99162e-10 2.57769e-11 -2.6886e-10)
(-2.47617e-13 -1.55093e-12 -1.9549e-11)
(1.75264e-12 -1.45738e-12 3.50373e-12)
(3.11144e-10 -1.2496e-11 2.55862e-10)
(9.56026e-10 4.85342e-11 6.77547e-10)
(4.2908e-10 9.60637e-11 4.7743e-10)
(8.69373e-11 4.91217e-11 1.38532e-10)
(-1.27306e-13 1.68258e-12 2.7725e-12)
(-7.69072e-12 -1.55128e-12 -5.80831e-12)
(-5.16907e-11 -1.42836e-11 -3.49434e-11)
(-1.47821e-10 -2.31211e-11 -1.17263e-10)
(-1.45992e-10 -9.35774e-12 -1.93199e-10)
(-2.00867e-11 2.60371e-12 -4.60238e-11)
(3.84433e-12 -1.3726e-13 4.32853e-12)
(3.06209e-10 -2.20639e-13 4.1335e-10)
(8.59067e-10 7.64218e-11 1.0304e-09)
(4.76809e-10 1.0352e-10 5.8387e-10)
(3.31543e-11 1.90851e-11 6.65345e-11)
(-3.76047e-12 2.80014e-13 -4.7583e-13)
(-1.16866e-11 -8.38374e-12 -3.88828e-11)
(9.92486e-11 -4.81815e-11 -1.95706e-10)
(3.65794e-10 -1.24004e-10 -4.32075e-10)
(2.06666e-10 -9.77617e-11 -3.32953e-10)
(-2.86632e-12 -1.93692e-11 -2.21249e-10)
(-7.62822e-11 6.19325e-11 -1.6065e-10)
(-1.58928e-11 4.77602e-11 -6.07979e-13)
(3.61874e-10 2.75528e-10 8.95636e-10)
(3.1255e-09 1.67133e-10 5.19234e-09)
(4.34359e-09 -7.62626e-10 4.96617e-09)
(3.45362e-09 -9.88752e-10 2.06723e-09)
(2.7569e-09 -7.96602e-10 3.93097e-10)
(2.1088e-09 -3.99535e-10 -3.10757e-10)
(1.08992e-09 -3.08237e-11 -3.33643e-10)
(2.12882e-10 4.74563e-11 -1.01766e-10)
(-2.43966e-12 1.09447e-11 -1.31597e-11)
(-9.19318e-11 1.87381e-11 -3.98534e-11)
(-1.16836e-10 1.13638e-12 -7.24713e-11)
(-2.93939e-11 -3.00612e-12 -7.2561e-11)
(4.20992e-11 7.07452e-12 -1.40798e-10)
(1.05439e-10 3.27362e-11 -2.21889e-10)
(-6.18408e-12 2.23366e-11 -1.34895e-10)
(-1.69196e-10 4.82394e-13 -1.05532e-10)
(-1.72311e-10 -2.75877e-11 -3.79889e-12)
(-1.7515e-12 -9.33581e-12 3.49286e-11)
(3.24473e-10 7.22855e-12 3.52096e-10)
(3.28718e-10 9.96844e-11 5.29574e-10)
(1.4296e-10 1.38039e-10 4.11525e-10)
(-1.86592e-11 2.00044e-11 4.71525e-11)
(-4.79412e-11 -2.89533e-12 -6.94797e-12)
(-1.61846e-10 -3.21013e-11 -6.39109e-11)
(-3.95474e-10 -4.99587e-11 -1.70561e-10)
(-5.75642e-10 -3.35423e-11 -3.84345e-10)
(-3.21489e-10 4.66839e-12 -2.86686e-10)
(-2.94822e-11 -1.38934e-13 -1.26257e-11)
(2.54349e-11 -6.89243e-12 1.40132e-10)
(6.12908e-10 7.3191e-11 1.15919e-09)
(6.86504e-10 2.23745e-10 1.16916e-09)
(5.5433e-11 7.59951e-11 2.30706e-10)
(-4.29604e-11 8.39726e-12 1.11473e-11)
(-9.00645e-11 -2.21557e-11 -9.00998e-11)
(5.69556e-11 -8.66672e-11 -2.90555e-10)
(4.46033e-10 -2.10163e-10 -6.24658e-10)
(1.87872e-10 -1.29402e-10 -3.94226e-10)
(-2.00845e-10 -3.27835e-11 -3.4788e-10)
(-1.13616e-09 3.20461e-10 -7.52937e-10)
(-7.20692e-10 4.74396e-10 -1.41562e-10)
(-9.14368e-11 4.33174e-10 8.52529e-10)
(2.78342e-09 3.43052e-10 6.64405e-09)
(4.89444e-09 -1.36333e-09 7.2617e-09)
(2.91368e-09 -1.38234e-09 2.51854e-09)
(1.24262e-09 -6.63019e-10 2.94869e-10)
(6.54079e-10 -2.39831e-10 -1.90993e-10)
(3.71712e-10 -7.07609e-12 -2.23668e-10)
(1.09146e-10 6.26895e-11 -1.12153e-10)
(-3.12847e-11 4.84373e-11 -5.23302e-11)
(-3.91238e-10 9.82751e-11 -1.27829e-10)
(-8.2591e-10 4.76094e-11 -2.10722e-10)
(-6.36689e-10 -6.47307e-12 -2.29675e-10)
(-3.06703e-10 4.36232e-12 -2.17267e-10)
(-1.75906e-10 3.88784e-11 -2.78353e-10)
(-2.24684e-10 6.93198e-11 -3.77985e-10)
(-6.34898e-10 3.17173e-11 -4.09782e-10)
(-9.47873e-10 -9.41157e-11 -2.05325e-10)
(-2.2489e-10 -5.65804e-11 3.75671e-11)
(2.04219e-11 -1.03763e-11 9.26414e-11)
(1.05806e-10 2.02638e-11 1.8701e-10)
(3.25074e-10 2.25013e-10 6.59364e-10)
(4.11863e-11 9.35595e-11 2.50973e-10)
(-1.57918e-11 1.81779e-12 1.11958e-11)
(-9.22803e-11 -2.2253e-11 -2.68515e-11)
(-3.30735e-10 -4.83826e-11 -1.10906e-10)
(-7.15044e-10 -4.53358e-11 -3.38625e-10)
(-8.4276e-10 -1.30706e-11 -5.71162e-10)
(-4.1393e-10 -5.32162e-12 -2.27517e-10)
(-7.48076e-11 -7.99337e-12 3.91334e-11)
(1.00459e-10 2.85622e-11 6.88643e-10)
(8.12926e-10 3.63331e-10 1.78457e-09)
(3.46167e-10 3.03792e-10 8.4279e-10)
(-1.4184e-11 2.62865e-11 4.17867e-11)
(-3.33305e-11 -9.74159e-12 -5.1456e-11)
(2.15883e-10 -1.94417e-10 -5.65171e-10)
(1.2073e-09 -5.17563e-10 -1.31256e-09)
(5.37232e-10 -2.47711e-10 -6.01097e-10)
(-1.04956e-10 -3.02778e-11 -1.86234e-10)
(-2.68583e-09 5.73826e-10 -1.20177e-09)
(-3.85726e-09 1.73902e-09 -8.55063e-10)
(-7.23451e-10 8.24717e-10 9.0998e-10)
(2.66702e-09 6.68567e-10 7.32456e-09)
(6.92001e-09 -2.19112e-09 1.04604e-08)
(3.30808e-09 -2.14883e-09 3.46653e-09)
(7.95564e-10 -7.29058e-10 3.07605e-10)
(3.27514e-10 -2.18449e-10 -1.1788e-10)
(2.74561e-10 -2.73175e-11 -1.63753e-10)
(2.68557e-10 1.00103e-10 -1.53837e-10)
(1.25552e-10 1.0975e-10 -8.76332e-11)
(-6.44102e-12 3.56097e-11 -2.70893e-11)
(-1.59128e-10 4.21488e-11 -5.49477e-11)
(-5.29267e-10 2.28559e-11 -1.14514e-10)
(-8.37206e-10 1.16337e-11 -2.12839e-10)
(-8.16556e-10 5.42965e-11 -3.8427e-10)
(-5.76981e-10 9.94698e-11 -5.37639e-10)
(-5.20694e-10 6.28697e-11 -5.3067e-10)
(-7.14677e-10 -6.58335e-11 -3.83741e-10)
(-4.80405e-10 -1.256e-10 -1.18584e-10)
(-3.09025e-11 -1.85122e-11 1.30996e-11)
(-1.67236e-12 -2.80381e-12 6.40023e-12)
(1.36283e-10 9.42434e-11 2.76513e-10)
(1.57277e-10 1.6895e-10 4.35548e-10)
(9.99226e-12 1.42698e-11 6.10516e-11)
(-2.91596e-12 -1.82142e-12 7.08748e-13)
(-5.37544e-11 -1.3775e-11 -1.80652e-11)
(-2.82007e-10 -2.17948e-11 -1.16499e-10)
(-7.04456e-10 -2.6235e-11 -4.28064e-10)
(-1.00644e-09 -3.22297e-11 -5.51167e-10)
(-7.61797e-10 -4.16991e-11 -7.13617e-11)
(-3.75414e-10 1.01808e-11 4.10449e-10)
(5.7453e-11 3.2772e-10 1.45905e-09)
(4.05807e-10 5.74817e-10 1.36745e-09)
(5.72444e-11 1.23508e-10 1.62381e-10)
(2.81234e-11 7.37289e-13 -5.08777e-11)
(1.06379e-09 -4.93553e-10 -1.42025e-09)
(3.12792e-09 -1.25172e-09 -2.8753e-09)
(1.24946e-09 -4.92346e-10 -9.44815e-10)
(2.9414e-14 -9.34394e-12 -2.93994e-11)
(-2.71158e-09 6.11478e-10 -6.67844e-10)
(-1.01838e-08 3.63222e-09 -1.75515e-09)
(-3.04103e-09 1.96833e-09 1.20407e-09)
(1.2407e-09 8.22221e-10 5.88517e-09)
(5.86326e-09 -2.41329e-09 1.03572e-08)
(2.19655e-09 -2.34573e-09 3.14031e-09)
(4.88234e-10 -8.03691e-10 2.83945e-10)
(2.57476e-10 -2.43486e-10 -7.60899e-11)
(2.38365e-10 -4.23432e-11 -1.11172e-10)
(2.91396e-10 8.55441e-11 -1.27992e-10)
(3.94428e-10 1.89985e-10 -1.31834e-10)
(3.26268e-10 1.69022e-10 -8.0895e-11)
(5.86448e-11 4.21253e-11 -1.66956e-11)
(-1.18088e-11 8.51874e-12 -3.46701e-12)
(-4.25357e-10 5.14684e-11 -4.63182e-11)
(-1.54905e-09 1.16633e-10 -2.94393e-10)
(-1.73691e-09 1.53617e-10 -6.94776e-10)
(-9.01984e-10 8.3052e-11 -6.8487e-10)
(-4.73806e-10 -2.62805e-11 -4.34452e-10)
(-3.82571e-10 -1.09467e-10 -2.5883e-10)
(-1.45624e-10 -7.2103e-11 -6.77831e-11)
(-5.11109e-11 -3.1127e-11 -3.468e-11)
(-5.26143e-12 4.88977e-12 2.38236e-11)
(2.70249e-11 7.58858e-11 2.08252e-10)
(1.95214e-11 2.09941e-11 1.01419e-10)
(6.25757e-12 -2.77375e-12 8.59444e-12)
(1.31975e-12 -9.41875e-13 6.44142e-14)
(-2.91616e-12 -2.86306e-13 -2.72149e-12)
(-1.06923e-10 -3.46054e-12 -8.85423e-11)
(-6.32249e-10 -2.90782e-11 -4.10058e-10)
(-1.78683e-09 -6.6869e-11 -3.68425e-10)
(-2.33888e-09 2.57564e-11 6.10375e-10)
(-1.16859e-09 3.94152e-10 1.36039e-09)
(-9.68559e-11 6.54526e-10 1.141e-09)
(1.3598e-10 2.34938e-10 1.9932e-10)
(4.67895e-10 4.66734e-11 -3.12583e-10)
(3.84863e-09 -1.20198e-09 -3.4281e-09)
(5.48958e-09 -2.22459e-09 -4.35852e-09)
(1.81159e-09 -7.91178e-10 -1.1111e-09)
(3.46476e-11 -1.2361e-11 -1.10923e-11)
(-1.18725e-09 4.24186e-10 1.26716e-11)
(-1.32596e-08 4.69377e-09 -1.08275e-09)
(-9.06459e-09 4.22474e-09 1.55695e-09)
(-7.55266e-10 8.29793e-10 3.8424e-09)
(2.0334e-09 -1.7839e-09 6.46933e-09)
(9.79106e-10 -2.20401e-09 2.23626e-09)
(4.59638e-10 -1.06517e-09 3.28725e-10)
(3.5807e-10 -3.42037e-10 -2.21165e-11)
(2.97495e-10 -5.76444e-11 -7.54925e-11)
(2.9977e-10 7.2716e-11 -1.04892e-10)
(4.14835e-10 1.57266e-10 -1.19733e-10)
(7.1407e-10 2.17061e-10 -8.87227e-11)
(8.94744e-10 2.25141e-10 7.84509e-12)
(3.50415e-10 1.18862e-10 4.30453e-11)
(-6.29949e-13 1.28213e-11 4.10308e-12)
(-5.81161e-10 1.30541e-10 -4.08074e-11)
(-2.25011e-09 2.43304e-10 -4.85325e-10)
(-1.93148e-09 1.18951e-10 -8.04088e-10)
(-7.04057e-10 -1.34686e-11 -5.29037e-10)
(-2.95827e-10 -7.53465e-11 -3.27009e-10)
(-2.10698e-10 -1.07997e-10 -2.34328e-10)
(-1.90741e-10 -1.01785e-10 -2.47603e-10)
(-7.1883e-11 -1.33027e-11 -7.45863e-12)
(-9.1417e-11 2.33486e-11 1.09559e-10)
(-3.99352e-11 5.68776e-12 9.51569e-11)
(5.86838e-12 -6.8951e-12 1.43316e-11)
(4.9994e-11 -1.28095e-11 6.76995e-12)
(7.65761e-11 -5.50233e-14 -5.7874e-12)
(2.6453e-11 1.99817e-12 -1.85295e-11)
(-2.99987e-11 -8.11994e-13 -6.68154e-11)
(-9.25916e-10 -3.98865e-12 -2.80729e-10)
(-5.10856e-09 1.36944e-10 5.72052e-10)
(-5.36286e-09 9.37845e-10 2.09558e-09)
(-8.73329e-10 7.84925e-10 8.26122e-10)
(1.4346e-10 2.38135e-10 4.71377e-11)
(1.95375e-09 1.09822e-10 -1.13981e-09)
(6.83118e-09 -1.98754e-09 -4.69755e-09)
(5.89095e-09 -2.75894e-09 -3.83007e-09)
(1.55502e-09 -9.17483e-10 -8.21731e-10)
(7.80963e-11 -2.68805e-11 -2.61564e-12)
(-2.36768e-10 2.19187e-10 1.14276e-10)
(-8.16429e-09 3.94158e-09 3.2917e-10)
(-1.45923e-08 6.17472e-09 1.79437e-09)
(-3.18081e-09 1.07228e-09 3.16782e-09)
(-3.63975e-10 -1.14814e-09 2.99845e-09)
(1.97686e-10 -2.1528e-09 1.52359e-09)
(5.1545e-10 -1.38916e-09 4.48349e-10)
(5.16516e-10 -4.38933e-10 9.1761e-11)
(3.89195e-10 -5.81323e-11 -3.15643e-11)
(3.49869e-10 7.74112e-11 -9.58119e-11)
(4.48406e-10 1.32962e-10 -1.09537e-10)
(8.16653e-10 1.56147e-10 -4.33955e-11)
(1.46498e-09 1.85916e-10 1.57614e-10)
(1.54524e-09 2.57786e-10 3.2912e-10)
(4.84261e-10 1.81412e-10 1.55984e-10)
(-8.48001e-12 3.437e-11 9.94386e-12)
(-7.30418e-10 2.02965e-10 -1.24001e-10)
(-1.94446e-09 2.03133e-10 -5.91147e-10)
(-1.31557e-09 1.56481e-11 -6.27671e-10)
(-4.81328e-10 -5.65345e-11 -4.3064e-10)
(-2.5875e-10 -1.04941e-10 -4.14427e-10)
(-3.35427e-10 -1.29945e-10 -5.68803e-10)
(-3.23121e-10 -6.97625e-11 -1.64572e-10)
(-2.93791e-10 -1.66552e-11 1.1635e-10)
(-1.1956e-10 -2.95464e-11 1.56669e-10)
(4.85926e-12 -2.70947e-11 4.1409e-11)
(4.47371e-11 -2.24042e-11 7.95901e-12)
(1.15541e-10 -7.02321e-12 -2.63152e-11)
(1.78711e-10 9.07065e-12 -7.00954e-11)
(9.73009e-11 3.68066e-12 -7.67804e-11)
(-3.89613e-11 6.92696e-12 -3.48804e-11)
(-3.05073e-09 2.92483e-10 3.15264e-10)
(-1.10429e-08 1.7364e-09 2.68885e-09)
(-3.3938e-09 1.47089e-09 8.64875e-10)
(7.39455e-11 2.06453e-10 -1.03068e-10)
(3.16377e-09 -2.11111e-11 -1.95008e-09)
(6.9168e-09 -2.37985e-09 -3.92667e-09)
(4.36144e-09 -2.62673e-09 -2.26323e-09)
(1.01466e-09 -8.45317e-10 -4.54595e-10)
(5.31337e-11 -2.84173e-11 -2.17332e-12)
(-2.00555e-11 1.65705e-10 8.23938e-11)
(-2.44206e-09 2.36692e-09 5.3274e-10)
(-1.12418e-08 5.85306e-09 1.45477e-09)
(-6.5827e-09 1.53495e-09 2.57888e-09)
(-1.8325e-09 -1.16967e-09 1.65875e-09)
(-4.63288e-10 -2.30574e-09 1.16731e-09)
(5.50011e-10 -1.54863e-09 6.61187e-10)
(6.29533e-10 -4.5043e-10 2.51962e-10)
(4.26522e-10 -3.20729e-11 1.71155e-11)
(3.6706e-10 8.41853e-11 -8.88853e-11)
(4.82945e-10 1.12208e-10 -9.95156e-11)
(9.44672e-10 1.0131e-10 3.52338e-11)
(1.79424e-09 7.93442e-11 4.146e-10)
(2.10777e-09 1.60593e-10 7.30964e-10)
(1.16419e-09 2.57441e-10 4.85009e-10)
(1.50472e-10 1.11027e-10 7.76107e-11)
(-5.2833e-11 6.1348e-11 -1.10974e-11)
(-6.60428e-10 1.82088e-10 -2.45321e-10)
(-1.16781e-09 1.07143e-10 -5.16341e-10)
(-7.65399e-10 -3.04884e-12 -5.11832e-10)
(-3.83201e-10 -6.47686e-11 -5.58899e-10)
(-3.41363e-10 -5.20805e-11 -7.53054e-10)
(-4.57973e-10 -8.34873e-11 -3.63171e-10)
(-3.31059e-10 -7.06434e-11 7.04221e-11)
(-1.21843e-10 -1.00187e-10 2.30911e-10)
(2.2755e-11 -1.07245e-10 1.68484e-10)
(1.9473e-11 -2.5474e-11 1.96342e-11)
(1.72577e-11 -4.12615e-12 -1.49715e-11)
(9.42235e-11 6.97556e-12 -1.09749e-10)
(1.79883e-10 5.14236e-13 -1.7114e-10)
(3.22143e-11 6.87566e-12 -3.67802e-11)
(-4.17097e-10 1.30308e-10 7.96026e-11)
(-8.2849e-09 1.82011e-09 2.17759e-09)
(-8.10521e-09 2.40012e-09 1.30277e-09)
(-2.05943e-10 2.17531e-10 -1.8258e-10)
(1.83882e-09 -2.18152e-10 -1.50642e-09)
(4.87993e-09 -2.27936e-09 -2.78232e-09)
(3.37001e-09 -2.43106e-09 -1.5187e-09)
(8.38131e-10 -7.94217e-10 -2.70802e-10)
(3.16995e-11 -2.72662e-11 -2.0141e-12)
(1.00459e-11 1.17562e-10 3.03404e-11)
(-5.05449e-10 1.53214e-09 2.35121e-10)
(-4.32819e-09 3.8478e-09 5.26334e-10)
(-6.77973e-09 1.68294e-09 9.62544e-10)
(-3.71822e-09 -1.67284e-09 9.64864e-10)
(-1.05691e-09 -2.44902e-09 9.89249e-10)
(3.85728e-10 -1.37583e-09 7.91396e-10)
(4.87423e-10 -3.24497e-10 3.19851e-10)
(2.98856e-10 1.67734e-13 3.73696e-11)
(2.83291e-10 7.13554e-11 -7.63879e-11)
(4.26768e-10 7.62098e-11 -8.72546e-11)
(1.03392e-09 3.91703e-11 1.21941e-10)
(2.32148e-09 -3.44967e-11 8.31436e-10)
(2.80421e-09 4.98182e-11 1.40915e-09)
(1.51002e-09 2.23976e-10 9.15856e-10)
(2.32949e-10 1.30816e-10 1.7468e-10)
(-1.18406e-11 3.91618e-11 2.86356e-12)
(-2.22111e-10 1.15559e-10 -1.12657e-10)
(-5.14252e-10 1.23706e-10 -3.02406e-10)
(-4.96911e-10 6.43471e-11 -3.8375e-10)
(-3.36266e-10 1.80705e-11 -5.37118e-10)
(-1.60242e-10 8.13985e-11 -7.31316e-10)
(-2.37963e-10 -1.59629e-11 -3.47943e-10)
(-1.26971e-10 -5.7927e-11 1.68444e-11)
(-7.84802e-11 -1.79029e-10 2.6876e-10)
(3.389e-12 -2.08276e-10 3.01557e-10)
(-1.38435e-11 -4.48244e-11 4.97142e-11)
(-5.82493e-12 -2.92703e-12 -4.35483e-12)
(4.72242e-13 4.09861e-12 -8.57074e-11)
(8.66288e-11 8.79895e-13 -2.0096e-10)
(7.92862e-11 1.15707e-11 -9.06138e-11)
(-1.53133e-11 2.53577e-11 9.25814e-12)
(-2.77035e-09 1.08135e-09 1.12732e-09)
(-8.29818e-09 2.5164e-09 1.81082e-09)
(-1.36395e-09 4.46812e-10 -2.68021e-10)
(3.3689e-10 -1.64566e-10 -6.06907e-10)
(2.9165e-09 -1.78438e-09 -2.0409e-09)
(2.67669e-09 -2.06782e-09 -1.07697e-09)
(7.74291e-10 -7.47406e-10 -5.7206e-11)
(4.25515e-11 -4.76101e-11 7.31021e-12)
(1.13589e-12 4.12717e-11 -1.28369e-11)
(-1.03759e-10 1.07985e-09 -1.55543e-10)
(-1.30107e-09 2.4689e-09 -1.97509e-10)
(-3.2361e-09 1.28569e-09 -1.31252e-10)
(-2.96258e-09 -1.2223e-09 2.31879e-10)
(-1.03677e-09 -2.00239e-09 7.78235e-10)
(1.00586e-10 -1.02344e-09 7.37666e-10)
(1.73859e-10 -1.5355e-10 2.17305e-10)
(9.64496e-11 8.5841e-12 1.74779e-11)
(1.52466e-10 4.35319e-11 -6.23785e-11)
(2.93666e-10 3.26469e-11 -8.47873e-11)
(8.79911e-10 -4.29583e-11 1.16878e-10)
(2.61035e-09 -2.08278e-10 1.12813e-09)
(3.96815e-09 -1.02688e-10 2.44538e-09)
(2.40275e-09 2.4142e-10 1.86872e-09)
(3.84436e-10 1.85548e-10 4.19688e-10)
(-1.54622e-11 4.20931e-11 2.02147e-11)
(-1.90278e-10 9.46999e-11 -7.99927e-11)
(-3.07631e-10 9.17526e-11 -2.13599e-10)
(-2.2988e-10 6.4255e-11 -2.5378e-10)
(-1.61901e-10 7.89563e-11 -4.28659e-10)
(-3.54486e-11 1.94598e-10 -6.65363e-10)
(-2.9649e-11 5.73475e-11 -3.02233e-10)
(-6.34196e-12 -1.0036e-11 -3.20876e-12)
(-2.67407e-11 -1.56951e-10 1.51847e-10)
(-7.63323e-11 -2.15918e-10 2.25275e-10)
(-1.34012e-10 -1.1113e-10 1.03883e-10)
(-1.31956e-10 -3.49066e-11 1.16816e-11)
(-5.67039e-11 -9.65288e-13 -4.62262e-11)
(4.5256e-12 5.26264e-12 -1.23042e-10)
(7.04496e-11 1.94828e-11 -1.20812e-10)
(8.62985e-12 2.57283e-11 -8.41753e-13)
(-8.29223e-10 6.10269e-10 6.11306e-10)
(-5.29539e-09 2.07208e-09 1.98877e-09)
(-2.74328e-09 7.21304e-10 2.85252e-11)
(-8.18716e-11 -8.31031e-11 -3.17258e-10)
(1.14552e-09 -9.78219e-10 -1.13552e-09)
(1.48624e-09 -1.32828e-09 -3.94269e-10)
(7.67613e-10 -7.98735e-10 2.85316e-10)
(1.5231e-10 -1.62497e-10 6.91027e-11)
(1.85214e-11 1.57078e-11 -6.00444e-11)
(-9.03732e-11 8.28558e-10 -6.92721e-10)
(-6.3477e-10 2.08732e-09 -9.2008e-10)
(-8.84148e-10 7.53552e-10 -3.1179e-10)
(-6.8826e-10 -3.2432e-10 4.14355e-11)
(-6.82141e-10 -1.26006e-09 6.10387e-10)
(-2.58037e-10 -7.1011e-10 6.11683e-10)
(-9.00329e-12 -5.75187e-11 9.44536e-11)
(8.92979e-12 2.52429e-12 8.34387e-14)
(8.47541e-11 2.4696e-11 -6.35219e-11)
(1.89555e-10 1.36017e-12 -1.00239e-10)
(4.97107e-10 -9.04166e-11 1.02452e-11)
(1.89529e-09 -3.35591e-10 8.18226e-10)
(4.50477e-09 -3.53682e-10 3.00599e-09)
(4.20771e-09 2.66001e-10 3.64524e-09)
(1.11828e-09 3.84101e-10 1.34699e-09)
(1.12586e-11 7.681e-11 9.38965e-11)
(-1.12672e-10 5.91867e-11 -3.3209e-11)
(-2.55254e-10 5.28173e-11 -1.76822e-10)
(-2.0244e-10 3.68841e-11 -2.21037e-10)
(-1.27744e-10 8.97312e-11 -3.5461e-10)
(-6.62838e-11 1.97755e-10 -5.14911e-10)
(5.00294e-11 1.25531e-10 -3.54653e-10)
(1.18145e-11 -6.53448e-12 -2.67192e-11)
(-4.89012e-12 -4.99827e-11 1.41843e-11)
(-1.05214e-10 -1.42198e-10 7.74231e-11)
(-3.07702e-10 -1.7802e-10 1.31107e-10)
(-3.8661e-10 -1.0955e-10 1.22878e-10)
(-1.28493e-10 -2.10544e-11 9.69139e-12)
(-8.51835e-12 -3.74657e-12 -2.65272e-11)
(7.50783e-11 7.47053e-12 -1.46956e-10)
(5.35704e-11 5.7957e-11 -5.96885e-11)
(-2.32289e-10 3.8473e-10 2.13218e-10)
(-3.47542e-09 1.98888e-09 1.84329e-09)
(-3.91473e-09 1.22623e-09 6.74054e-10)
(-5.04098e-10 -4.5117e-11 -3.05548e-10)
(1.46118e-10 -3.37009e-10 -3.16354e-10)
(6.86343e-10 -7.71174e-10 1.07628e-10)
(1.1408e-09 -1.13045e-09 8.92089e-10)
(5.73401e-10 -4.8852e-10 2.87269e-10)
(1.47853e-10 -5.24631e-11 -2.17609e-10)
(-8.82727e-11 7.51032e-10 -1.72281e-09)
(-6.71532e-10 1.79349e-09 -1.98861e-09)
(-3.47904e-10 5.08325e-10 -3.94535e-10)
(-1.39999e-10 -4.85348e-11 2.01288e-11)
(-7.35746e-10 -6.7177e-10 4.86362e-10)
(-6.82404e-10 -5.09916e-10 5.35801e-10)
(-6.86361e-11 -4.21349e-11 6.76752e-11)
(2.94266e-12 6.53517e-13 -1.44529e-12)
(8.60621e-11 1.21723e-11 -7.53634e-11)
(1.49355e-10 -2.1717e-11 -1.28653e-10)
(2.01276e-10 -8.4488e-11 -7.71481e-11)
(6.62083e-10 -2.35561e-10 1.7565e-10)
(2.87466e-09 -4.15262e-10 1.8532e-09)
(5.62627e-09 2.20622e-10 4.97007e-09)
(3.17721e-09 7.70206e-10 3.81095e-09)
(2.88179e-10 2.59871e-10 6.49881e-10)
(-2.91198e-11 2.495e-11 1.22457e-11)
(-1.45154e-10 1.94158e-11 -1.07111e-10)
(-1.93854e-10 5.36952e-12 -2.18218e-10)
(-1.60619e-10 6.50283e-11 -3.06033e-10)
(-7.88224e-11 1.21712e-10 -3.11492e-10)
(-6.17754e-12 1.07e-10 -2.55669e-10)
(1.15984e-12 2.84143e-12 -7.43905e-11)
(-1.96902e-11 -2.66882e-11 -2.23683e-11)
(-9.8666e-11 -7.63106e-11 -9.53427e-13)
(-2.16352e-10 -1.09677e-10 6.71364e-11)
(-2.68449e-10 -9.19398e-11 1.429e-10)
(-1.39318e-10 -4.26686e-11 8.94199e-11)
(-7.88883e-12 -6.65955e-12 1.99523e-12)
(2.30727e-11 -1.76649e-11 -5.20508e-11)
(5.08613e-11 3.45183e-11 -1.12744e-10)
(-9.75646e-11 2.76694e-10 -1.76046e-11)
(-2.25622e-09 1.99672e-09 9.47457e-10)
(-4.61414e-09 2.13621e-09 1.05347e-09)
(-1.30296e-09 1.61598e-10 -9.84493e-11)
(-2.8172e-11 -9.08764e-11 -1.43941e-11)
(6.88538e-10 -8.6735e-10 4.39491e-10)
(1.89648e-09 -1.78393e-09 1.26662e-09)
(1.04138e-09 -7.99264e-10 4.25148e-10)
(2.3975e-10 -6.22975e-11 -1.89557e-10)
(8.61168e-11 6.82356e-10 -2.01152e-09)
(-1.22105e-09 1.87827e-09 -3.59369e-09)
(-1.22929e-09 8.2393e-10 -1.29331e-09)
(-8.65746e-10 8.31629e-12 -8.61443e-11)
(-1.03146e-09 -3.84103e-10 4.3999e-10)
(-4.07947e-10 -2.60749e-10 3.76196e-10)
(-1.48281e-11 -3.82821e-11 6.35528e-11)
(1.75974e-11 -5.1265e-12 2.76897e-12)
(6.02377e-11 -7.32132e-12 -4.72737e-11)
(8.03595e-11 -3.55385e-11 -1.36019e-10)
(8.46697e-11 -8.30369e-11 -1.69469e-10)
(1.457e-10 -9.78284e-11 -7.73906e-11)
(9.22467e-10 -1.95809e-10 3.88342e-10)
(4.49498e-09 1.75966e-10 3.67257e-09)
(5.95671e-09 1.30344e-09 6.70652e-09)
(1.63483e-09 8.14143e-10 2.91244e-09)
(-7.76885e-12 7.73622e-11 2.02502e-10)
(-6.15752e-11 1.24671e-12 -2.39818e-11)
(-1.40405e-10 -2.56912e-11 -1.88629e-10)
(-1.21942e-10 2.44686e-11 -2.61799e-10)
(-7.48279e-11 7.28948e-11 -2.21074e-10)
(-5.23533e-11 7.11169e-11 -1.09694e-10)
(-4.09069e-11 1.43884e-11 -3.67151e-11)
(-1.02409e-10 -3.51697e-11 -3.2023e-11)
(-2.01821e-10 -1.12103e-10 -3.53484e-11)
(-1.37863e-10 -8.75549e-11 -1.33753e-11)
(-4.18174e-11 -2.49844e-11 1.14159e-11)
(-1.67535e-11 -7.29986e-12 2.00448e-11)
(-5.099e-12 -3.79141e-12 8.88447e-12)
(-1.46638e-12 -4.70752e-12 -4.57662e-12)
(-1.63189e-11 3.86406e-13 -6.86758e-11)
(-1.96017e-10 2.4719e-10 -1.36317e-10)
(-1.84868e-09 1.9222e-09 2.59602e-10)
(-3.92748e-09 2.65523e-09 9.52571e-10)
(-1.29321e-09 3.5027e-10 3.02649e-10)
(-3.12712e-11 -1.58405e-10 6.71961e-11)
(1.07406e-09 -1.5062e-09 4.17733e-10)
(1.83513e-09 -1.95879e-09 5.56422e-10)
(6.43945e-10 -5.41148e-10 1.68301e-10)
(9.83386e-11 2.38168e-12 -4.32192e-11)
(2.66627e-10 5.7885e-10 -9.21687e-10)
(-1.8597e-10 1.55071e-09 -2.67562e-09)
(-8.5721e-10 8.00121e-10 -1.51227e-09)
(-5.51765e-10 5.47356e-11 -1.77903e-10)
(-4.07773e-10 -1.79802e-10 2.43409e-10)
(-1.91352e-10 -2.55688e-10 3.83431e-10)
(-2.46555e-11 -1.13692e-10 1.52567e-10)
(-3.14717e-12 -1.11975e-11 7.43944e-12)
(-1.01601e-11 -8.67704e-12 -1.81931e-11)
(-5.24662e-11 -4.05699e-11 -1.53641e-10)
(-4.80984e-11 -9.28156e-11 -3.23428e-10)
(6.9935e-11 -8.48276e-11 -2.44184e-10)
(2.79833e-10 -5.38047e-11 -4.41966e-11)
(2.30785e-09 1.64607e-10 1.42673e-09)
(6.60967e-09 1.55987e-09 6.55444e-09)
(4.7729e-09 1.89492e-09 6.60123e-09)
(6.03727e-10 4.33134e-10 1.51757e-09)
(-1.15419e-11 2.366e-12 2.52655e-11)
(-6.65302e-11 -3.4603e-11 -9.2272e-11)
(-9.94888e-11 -1.88023e-11 -2.69912e-10)
(-6.21931e-11 2.99845e-11 -1.94872e-10)
(-5.36982e-11 4.34402e-11 -5.66365e-11)
(-9.26286e-11 2.2941e-11 -5.01129e-12)
(-3.05993e-10 -6.16591e-11 2.40998e-11)
(-5.12103e-10 -2.12573e-10 -3.41317e-11)
(-2.96233e-10 -1.51625e-10 -9.34163e-11)
(-3.84877e-11 -2.05361e-11 -2.65038e-11)
(-4.02936e-14 1.06602e-13 -1.32492e-13)
(1.30014e-12 1.74591e-12 2.00149e-12)
(-1.87366e-13 -7.10554e-15 -4.9168e-14)
(-4.88475e-11 2.60664e-12 -4.05139e-11)
(-4.56596e-10 2.5313e-10 -1.97011e-10)
(-1.9103e-09 1.59181e-09 4.5122e-12)
(-2.59291e-09 2.00195e-09 6.6798e-10)
(-5.09303e-10 1.69015e-10 2.23014e-10)
(5.02154e-11 -2.60997e-10 5.48981e-11)
(1.17748e-09 -1.68843e-09 -7.30568e-12)
(1.27192e-09 -1.40437e-09 7.25654e-11)
(2.77561e-10 -2.19224e-10 6.36972e-11)
(1.66059e-11 1.19416e-11 -5.76669e-12)
(9.01088e-11 4.25928e-10 -4.16995e-10)
(2.92858e-10 1.1118e-09 -1.47932e-09)
(1.89822e-10 4.94178e-10 -8.24727e-10)
(2.56432e-11 4.41098e-12 -2.85426e-11)
(1.29099e-10 -1.54737e-10 1.42689e-10)
(1.49694e-10 -3.84873e-10 4.028e-10)
(-1.1901e-10 -1.97261e-10 1.92204e-10)
(-5.74509e-10 -1.52629e-10 8.65352e-11)
(-1.11972e-09 -1.01845e-10 -1.74821e-10)
(-8.29283e-10 -1.4219e-10 -3.80154e-10)
(-3.70311e-10 -1.77288e-10 -4.27396e-10)
(-6.7907e-11 -1.20975e-10 -3.88492e-10)
(1.07696e-10 -1.64162e-11 -1.61424e-10)
(6.26037e-10 1.21533e-10 1.78024e-10)
(3.79801e-09 1.14856e-09 3.34798e-09)
(6.41557e-09 2.58392e-09 7.52906e-09)
(2.95997e-09 1.44471e-09 4.22757e-09)
(2.60347e-10 1.07299e-10 4.28342e-10)
(6.82073e-13 -3.88386e-12 -5.19246e-12)
(-3.661e-11 -3.77895e-11 -1.87384e-10)
(-3.12702e-11 -4.46102e-13 -7.68743e-11)
(-5.68149e-11 1.16899e-11 -3.65032e-11)
(-1.81811e-10 4.89883e-12 7.14977e-12)
(-7.2607e-10 -1.07198e-10 7.9611e-11)
(-1.24941e-09 -3.05659e-10 -1.73567e-11)
(-5.61523e-10 -1.87863e-10 -1.44754e-10)
(-3.06087e-11 -1.18822e-11 -4.34898e-11)
(3.12614e-11 2.36115e-11 -2.90785e-11)
(5.44789e-11 5.15587e-11 -6.5762e-12)
(4.03318e-12 1.22403e-11 1.50471e-12)
(-6.67079e-11 2.72498e-11 -1.84432e-11)
(-7.70342e-10 2.87402e-10 -1.7289e-10)
(-1.98609e-09 1.04777e-09 -6.5342e-11)
(-1.40012e-09 7.67581e-10 2.38312e-10)
(-9.7206e-11 9.6525e-13 2.95925e-11)
(1.56635e-10 -3.34941e-10 -4.19171e-11)
(1.08215e-09 -1.18529e-09 -1.46296e-10)
(9.56094e-10 -7.06616e-10 1.41742e-10)
(2.38556e-10 -7.76252e-11 1.3232e-10)
(2.34873e-11 4.03594e-11 1.97176e-11)
(1.74367e-11 2.84202e-10 -1.62665e-10)
(2.4572e-10 6.38445e-10 -7.68488e-10)
(5.99868e-10 3.34426e-10 -7.02701e-10)
(7.74919e-10 -1.00144e-10 -2.09709e-10)
(7.82086e-10 -4.0805e-10 2.38182e-10)
(9.98212e-11 -1.81921e-10 1.86491e-10)
(-4.55091e-10 -1.09039e-10 1.84377e-10)
(-2.32546e-09 -4.25635e-11 1.11409e-10)
(-1.87824e-09 -2.2972e-10 -1.27933e-10)
(-4.69501e-10 -2.81772e-10 -1.3015e-10)
(-1.85259e-10 -3.13688e-10 -2.29011e-10)
(-2.41589e-10 -2.98432e-10 -5.05677e-10)
(-2.18153e-10 -3.26981e-11 -5.22624e-10)
(3.33144e-12 4.82312e-11 -6.54104e-11)
(5.24585e-10 3.43092e-10 4.69477e-10)
(3.53432e-09 1.55777e-09 4.0726e-09)
(4.77205e-09 1.8797e-09 5.31802e-09)
(1.91104e-09 5.9894e-10 1.76991e-09)
(1.92298e-10 1.97299e-11 8.06404e-11)
(1.17952e-11 -6.57777e-12 -2.99343e-11)
(6.13155e-13 3.65684e-13 2.19562e-13)
(-1.13761e-10 7.99461e-12 4.03956e-11)
(-9.64421e-10 1.53513e-11 2.68867e-10)
(-1.92046e-09 -1.38278e-10 3.54767e-10)
(-1.0508e-09 -3.31749e-10 5.25902e-11)
(-1.29636e-10 -1.77835e-10 -8.56027e-11)
(1.11441e-10 -1.07438e-10 -1.92814e-10)
(3.90856e-10 1.22666e-10 -3.80378e-10)
(3.4438e-10 3.52912e-10 -2.46396e-10)
(4.33426e-11 1.63161e-10 -2.01521e-11)
(-1.34504e-10 1.08886e-10 2.35995e-11)
(-9.20014e-10 2.55101e-10 -1.98653e-12)
(-1.65043e-09 4.31703e-10 -1.41038e-10)
(-7.27856e-10 1.72728e-10 -1.15818e-10)
(-2.85171e-11 -1.3326e-11 -2.44174e-11)
(1.70002e-10 -1.7581e-10 -7.80659e-11)
(7.42786e-10 -5.04963e-10 4.06379e-11)
(8.2466e-10 -4.32157e-10 3.57279e-10)
(3.17695e-10 -9.21094e-11 2.87624e-10)
(2.99568e-11 3.76711e-11 7.27734e-11)
(-1.29695e-11 9.77852e-11 3.64736e-12)
(3.08677e-11 1.6214e-10 -1.15365e-10)
(1.38923e-10 7.47088e-11 -1.69544e-10)