/*--------------------------------*- C++ -*----------------------------------*\
| =========                 |                                                 |
| \\      /  F ield         | OpenFOAM: The Open Source CFD Toolbox           |
|  \\    /   O peration     | Version:  5.0                                   |
|   \\  /    A nd           | Web:      www.OpenFOAM.org                      |
|    \\/     M anipulation  |                                                 |
\*---------------------------------------------------------------------------*/
FoamFile
{
    version     2.0;
    format      ascii;
    class       volVectorField;
    location    "50.4676134421789371";
    object      U;
}
// * * * * * * * * * * * * * * * * * * * * * * * * * * * * * * * * * * * * * //

dimensions      [0 1 -1 0 0 0 0];

internalField   nonuniform List<vector> 
60000
(
(0.0111643 1.0498e-05 0.00158833)
(0.0108182 1.1301e-05 0.00215482)
(0.00990544 1.91171e-05 0.00241227)
(0.00871399 1.80511e-05 0.00218302)
(0.00780845 1.02188e-05 0.00132161)
(0.00747534 5.37973e-06 3.81644e-05)
(0.00753372 2.89307e-06 -0.00112154)
(0.00785452 7.20647e-06 -0.00162655)
(0.00854838 1.09944e-05 -0.00124077)
(0.00951291 4.58265e-06 -6.96696e-05)
(0.0103667 4.06441e-06 0.00129235)
(0.010786 4.22052e-06 0.00229874)
(0.0106873 5.71499e-06 0.00269115)
(0.0103161 9.89141e-06 0.00249757)
(0.0100235 2.45097e-05 0.00187621)
(0.00997422 4.69031e-05 0.000880195)
(0.0101782 4.97909e-05 -0.00042847)
(0.0106167 2.67141e-05 -0.00174049)
(0.0112199 -1.57694e-05 -0.0027884)
(0.0118976 -4.12901e-05 -0.00352011)
(0.0126575 -3.21783e-05 -0.00364079)
(0.013609 -2.09034e-07 -0.00277602)
(0.0146688 4.13288e-05 -0.00102733)
(0.0156385 5.66717e-05 0.000969031)
(0.0165954 3.43864e-05 0.002546)
(0.0177015 -2.30021e-05 0.00332388)
(0.0187832 -8.06315e-05 0.00342058)
(0.0193833 -0.000113216 0.00321245)
(0.0190814 -0.000114531 0.00293994)
(0.017897 -8.89382e-05 0.00252309)
(0.016479 -4.95535e-05 0.00173371)
(0.0155709 -1.80641e-05 0.000591342)
(0.015273 -8.45166e-07 -0.000609647)
(0.0151718 -7.37803e-06 -0.00166827)
(0.0146498 -1.79135e-05 -0.00259816)
(0.0133057 -2.05971e-05 -0.00329732)
(0.0116776 -6.25811e-06 -0.00325515)
(0.0108277 1.92943e-05 -0.0021674)
(0.0108095 3.06257e-05 -0.000611094)
(0.0110575 2.16886e-05 0.00070081)
(0.033386 1.80051e-05 0.00366209)
(0.0328004 0.000130142 0.00506967)
(0.0306398 0.000214724 0.0055331)
(0.0275321 0.000176012 0.00496677)
(0.0246723 4.27065e-05 0.00314303)
(0.0230459 -5.93907e-05 0.00014965)
(0.0226891 -6.18219e-05 -0.00275166)
(0.0232436 -1.55852e-05 -0.00394861)
(0.0249711 -9.79922e-06 -0.00273739)
(0.0278166 -1.95207e-05 0.00048435)
(0.0306353 4.62732e-05 0.00411068)
(0.0322519 0.000148111 0.00675733)
(0.0321593 0.000206315 0.00776848)
(0.030877 0.000169333 0.00714766)
(0.0296634 9.39779e-05 0.00528011)
(0.0295326 2.51638e-05 0.00249096)
(0.0306453 -0.000123056 -0.000849955)
(0.0324467 -0.000325966 -0.00404267)
(0.0342502 -0.000475269 -0.00666627)
(0.0356223 -0.00039642 -0.00860505)
(0.0367535 -0.000108063 -0.00903192)
(0.0384688 0.000193299 -0.00673833)
(0.0411736 0.00033702 -0.00189125)
(0.0443669 0.000220559 0.00343899)
(0.0478211 -0.000147594 0.00735736)
(0.0515221 -0.000601082 0.00914527)
(0.0549015 -0.00090165 0.00920491)
(0.0568451 -0.000929587 0.00847416)
(0.0563173 -0.000741962 0.00762707)
(0.0532124 -0.000483673 0.00662719)
(0.0490032 -0.000291703 0.00494387)
(0.045916 -0.00021032 0.00235005)
(0.0447868 -0.000166174 -0.000646831)
(0.0446888 -0.000121013 -0.00342541)
(0.0438044 -5.8772e-05 -0.00584068)
(0.0405657 -1.00682e-05 -0.00769909)
(0.0355581 -2.73632e-05 -0.00804628)
(0.0319871 -8.00201e-05 -0.00596922)
(0.0315429 -8.36825e-05 -0.0022742)
(0.0326251 -4.89549e-05 0.00122939)
(0.0530048 -0.000292318 0.00321406)
(0.0533521 9.26141e-05 0.00586799)
(0.0512291 0.000383407 0.00695021)
(0.0473639 0.000367505 0.00659496)
(0.0428935 0.000100448 0.00495516)
(0.0390977 -0.000178549 0.00171812)
(0.0370852 -0.000229436 -0.00247751)
(0.0369928 -0.000110255 -0.00517403)
(0.0386742 -6.63007e-05 -0.00455164)
(0.0424331 -0.000141353 -0.000466704)
(0.0471921 -3.47776e-05 0.00498211)
(0.0507046 0.000227879 0.0093975)
(0.0514818 0.000475631 0.0115604)
(0.0497291 0.000488154 0.0112769)
(0.0473717 0.000269986 0.00900672)
(0.0466811 -5.33138e-05 0.00532207)
(0.0484156 -0.000527625 0.000799516)
(0.0513916 -0.00106043 -0.00367854)
(0.0540459 -0.00137307 -0.00750164)
(0.0555849 -0.00106118 -0.0105835)
(0.0563466 -0.000168332 -0.0119289)
(0.0577453 0.000727881 -0.00948716)
(0.0612894 0.00104502 -0.00266467)
(0.0664533 0.000637489 0.00540109)
(0.0722155 -0.000392184 0.0113376)
(0.0781604 -0.00156008 0.0140218)
(0.0836143 -0.00232081 0.0140239)
(0.0872427 -0.00239243 0.0126665)
(0.0875826 -0.00191029 0.0110762)
(0.0840861 -0.00123783 0.00959082)
(0.0781343 -0.000740137 0.00777582)
(0.0726403 -0.000572839 0.00507414)
(0.0697794 -0.00058181 0.00152789)
(0.0692425 -0.00054102 -0.00226134)
(0.0687915 -0.00035461 -0.00581629)
(0.0655984 -0.000114666 -0.00878864)
(0.0588927 -5.19217e-05 -0.0103118)
(0.0519957 -0.000269732 -0.00927968)
(0.0493504 -0.000508588 -0.00562587)
(0.0508484 -0.000527258 -0.00087692)
(0.0673692 -0.00112756 0.00030329)
(0.0695076 -0.00034712 0.00455445)
(0.0686939 0.000362949 0.00692336)
(0.0652939 0.000528747 0.0072631)
(0.0603799 0.000210114 0.00619701)
(0.0549768 -0.000242593 0.00371726)
(0.0506639 -0.000460344 -0.000580682)
(0.0487218 -0.000370006 -0.00487376)
(0.0492195 -0.000247139 -0.00620214)
(0.0522628 -0.000405638 -0.00305633)
(0.0577635 -0.000382354 0.00322623)
(0.0632637 3.15766e-05 0.00944209)
(0.0658342 0.00061775 0.0133307)
(0.0646108 0.000889204 0.0141752)
(0.0615769 0.000635136 0.0123102)
(0.060179 -2.2269e-06 0.00849386)
(0.0622442 -0.000921267 0.00351683)
(0.0662996 -0.00192701 -0.00165351)
(0.0695641 -0.00255837 -0.00626754)
(0.070642 -0.00212926 -0.0102786)
(0.0703821 -0.000510516 -0.0127381)
(0.0708552 0.00132244 -0.0111051)
(0.0743997 0.00209096 -0.00368424)
(0.0808443 0.00141784 0.00629708)
(0.0882627 -0.00047463 0.0140533)
(0.0955731 -0.002627 0.0177478)
(0.102141 -0.00408385 0.0179163)
(0.107088 -0.00434028 0.0161187)
(0.109138 -0.00356431 0.01381)
(0.107113 -0.00236331 0.0117441)
(0.101408 -0.0013998 0.00984837)
(0.0945716 -0.00101805 0.00756896)
(0.0895447 -0.0010799 0.00454245)
(0.0873715 -0.00117119 0.000865382)
(0.0867287 -0.000944481 -0.00321236)
(0.0846426 -0.000428294 -0.00723615)
(0.0785135 -0.000100612 -0.0101737)
(0.0700015 -0.000366765 -0.0108596)
(0.0642916 -0.0010091 -0.00885197)
(0.0642461 -0.00139607 -0.00469233)
(0.0784809 -0.00238725 -0.00406316)
(0.0818863 -0.00134375 0.00118625)
(0.0829774 -4.29369e-05 0.00532079)
(0.0809244 0.000518411 0.00697555)
(0.0766134 0.000271817 0.00667885)
(0.0709006 -0.000260376 0.00512985)
(0.0651158 -0.000653596 0.00172523)
(0.0609826 -0.000732978 -0.00317385)
(0.0594048 -0.000629443 -0.00663273)
(0.0604221 -0.000833044 -0.00580063)
(0.064546 -0.00105197 -0.000277372)
(0.0707012 -0.000607951 0.00715871)
(0.0753129 0.000441207 0.0130742)
(0.0757398 0.00127261 0.0156756)
(0.0730881 0.0012136 0.0147717)
(0.0715261 0.000282023 0.0111147)
(0.0741666 -0.0011865 0.00584482)
(0.0796586 -0.00276498 0.000287232)
(0.0839074 -0.00378116 -0.00459736)
(0.0842615 -0.00341243 -0.00899453)
(0.0819134 -0.00120179 -0.0124075)
(0.0805363 0.00173535 -0.0119509)
(0.0833493 0.00326163 -0.00488852)
(0.0905559 0.00245699 0.00616846)
(0.099169 -0.00036803 0.0153713)
(0.106922 -0.00363949 0.0199805)
(0.113138 -0.00593433 0.0203909)
(0.117981 -0.00655926 0.0184551)
(0.121288 -0.00565392 0.0158417)
(0.121941 -0.00393026 0.0133996)
(0.118873 -0.00236493 0.0113197)
(0.113099 -0.00159475 0.00933226)
(0.107172 -0.00155944 0.0070615)
(0.102894 -0.00176467 0.00428045)
(0.100406 -0.00165687 0.000703019)
(0.0984317 -0.000983038 -0.00375645)
(0.0941917 -0.000275879 -0.00803057)
(0.0866144 -0.00036398 -0.0105203)
(0.0792255 -0.00129882 -0.0105838)
(0.0763425 -0.00228792 -0.00833428)
(0.089308 -0.00355295 -0.00809934)
(0.0921045 -0.00280192 -0.00358386)
(0.094542 -0.00102548 0.00175628)
(0.094402 0.000152915 0.00525144)
(0.0916827 0.000188943 0.00620601)
(0.087025 -0.000315603 0.00561825)
(0.0812606 -0.000792405 0.00349662)
(0.075896 -0.00107235 -0.000743601)
(0.0721181 -0.00114976 -0.00543433)
(0.0703114 -0.0014142 -0.00719723)
(0.0711896 -0.00186524 -0.0039494)
(0.0753566 -0.00160162 0.00332371)
(0.0805566 -0.0001558 0.0108547)
(0.0830646 0.00146771 0.0155011)
(0.0822075 0.00198727 0.015955)
(0.081755 0.000940221 0.0125243)
(0.0856577 -0.00118083 0.00669304)
(0.0928987 -0.00346865 0.00062124)
(0.098509 -0.00488845 -0.00405423)
(0.0986953 -0.00463895 -0.0078403)
(0.0938252 -0.00209694 -0.011463)
(0.0892809 0.00183446 -0.0122122)
(0.0903363 0.00432483 -0.00618012)
(0.0977212 0.00353586 0.00509583)
(0.106816 -0.000125963 0.0150833)
(0.113649 -0.00449611 0.0200639)
(0.118128 -0.00763342 0.0204425)
(0.121782 -0.00872632 0.0185463)
(0.12527 -0.00797323 0.0161649)
(0.128234 -0.00604889 0.0139613)
(0.129342 -0.00393122 0.0120386)
(0.127538 -0.00254509 0.0103125)
(0.12351 -0.00211265 0.00863302)
(0.118648 -0.00218204 0.00681289)
(0.113877 -0.00214062 0.00439874)
(0.109881 -0.00155357 0.000693204)
(0.106373 -0.000636314 -0.00405736)
(0.10134 -0.000355046 -0.00811456)
(0.0947899 -0.00123511 -0.0102193)
(0.0899093 -0.00271218 -0.010281)
(0.101179 -0.00388582 -0.0100032)
(0.101434 -0.00398666 -0.00759455)
(0.103351 -0.00242849 -0.00289586)
(0.104444 -0.000795575 0.00173768)
(0.103861 -0.000287155 0.00423758)
(0.1015 -0.000561103 0.00484321)
(0.0974998 -0.000956258 0.00404887)
(0.0927224 -0.00130312 0.00122032)
(0.0880438 -0.00160777 -0.00336295)
(0.0836763 -0.00196543 -0.00676059)
(0.0804526 -0.00247578 -0.00607096)
(0.0801742 -0.00240775 -0.000455988)
(0.0829891 -0.000807375 0.00735489)
(0.085992 0.00155219 0.0133345)
(0.0875277 0.00285975 0.014918)
(0.0899321 0.00193569 0.0115924)
(0.0963632 -0.000856792 0.00498703)
(0.105251 -0.00397474 -0.00162743)
(0.11202 -0.00587324 -0.00573232)
(0.112901 -0.00569157 -0.00798753)
(0.106573 -0.00295722 -0.0105475)
(0.0983705 0.00162851 -0.0119262)
(0.0963737 0.00501865 -0.00728451)
(0.102318 0.00441299 0.00326136)
(0.109825 0.000179041 0.0129497)
(0.114428 -0.00509944 0.0175204)
(0.117432 -0.00898291 0.0178225)
(0.120673 -0.0105113 0.0163531)
(0.124253 -0.00998043 0.0145461)
(0.127931 -0.00818672 0.0128363)
(0.131604 -0.00600622 0.0113587)
(0.134412 -0.00419529 0.0101426)
(0.135042 -0.00312056 0.0091105)
(0.132845 -0.00262971 0.00811535)
(0.128061 -0.00228803 0.00678809)
(0.121996 -0.00170741 0.00439239)
(0.116712 -0.000875688 0.000479052)
(0.112732 -0.000382097 -0.00400443)
(0.108509 -0.00089953 -0.00757688)
(0.103981 -0.00238826 -0.00971406)
(0.113138 -0.00316702 -0.00945534)
(0.111024 -0.00412948 -0.00948864)
(0.110415 -0.00342032 -0.0065163)
(0.110474 -0.00202197 -0.00227606)
(0.110568 -0.00133082 0.000960472)
(0.110615 -0.00135103 0.00260767)
(0.109969 -0.00146442 0.00300855)
(0.108114 -0.00158792 0.0017413)
(0.105044 -0.0019228 -0.00169352)
(0.100185 -0.00233262 -0.00547483)
(0.0936467 -0.00276672 -0.00645249)
(0.0879714 -0.00265358 -0.0030189)
(0.0860703 -0.000979091 0.00357484)
(0.0875267 0.00193331 0.00931873)
(0.0906951 0.0038329 0.0109223)
(0.0966112 0.00295176 0.00726918)
(0.10599 -0.000461527 0.000322633)
(0.11583 -0.00439624 -0.00599614)
(0.12282 -0.00687256 -0.00920724)
(0.124662 -0.00672828 -0.00980575)
(0.118878 -0.00370905 -0.0104579)
(0.1083 0.0013065 -0.0114042)
(0.102338 0.0053391 -0.00802273)
(0.104529 0.00506386 0.000900411)
(0.108761 0.000532613 0.00919642)
(0.11154 -0.00549926 0.0129936)
(0.114343 -0.0100437 0.0135618)
(0.118077 -0.0118921 0.0129271)
(0.122063 -0.0114486 0.0118415)
(0.125899 -0.00975016 0.010565)
(0.130005 -0.00777356 0.00942874)
(0.134724 -0.0060838 0.00871158)
(0.139242 -0.00474833 0.00843338)
(0.141616 -0.00361213 0.00834583)
(0.140124 -0.00257395 0.00798636)
(0.134871 -0.00158419 0.00673505)
(0.128212 -0.000694692 0.00411749)
(0.122889 -0.000183563 0.000398698)
(0.119394 -0.000396982 -0.00347477)
(0.116274 -0.00150958 -0.00695859)
(0.123445 -0.00170741 -0.0072583)
(0.120272 -0.00306338 -0.00950809)
(0.117052 -0.00323383 -0.00838572)
(0.114515 -0.00251032 -0.00497996)
(0.113285 -0.00216543 -0.00177072)
(0.113882 -0.00235307 0.000152317)
(0.11582 -0.00241411 0.000989622)
(0.117809 -0.00230922 0.000665091)
(0.118572 -0.00243505 -0.00141851)
(0.116359 -0.00268156 -0.00456691)
(0.109503 -0.00282161 -0.00611513)
(0.0996477 -0.00243804 -0.00416272)
(0.0923187 -0.000505046 0.00032019)
(0.0911331 0.00274439 0.00418863)
(0.0953508 0.00480218 0.004424)
(0.103933 0.00366295 0.000329152)
(0.114715 -0.000306168 -0.00575188)
(0.124018 -0.00496215 -0.0105984)
(0.129823 -0.00802511 -0.0127095)
(0.131928 -0.00794257 -0.0123261)
(0.128297 -0.00449003 -0.0113862)
(0.11818 0.00100111 -0.0111932)
(0.108927 0.00548135 -0.00868526)
(0.106248 0.00553136 -0.00207186)
(0.106921 0.000805269 0.00414317)
(0.108429 -0.00586427 0.00723862)
(0.111488 -0.0108339 0.00851656)
(0.115785 -0.0127082 0.00896543)
(0.120077 -0.0121462 0.00859303)
(0.124012 -0.0104427 0.00766218)
(0.128191 -0.00864492 0.00681906)
(0.133217 -0.00726554 0.00658217)
(0.138921 -0.00619303 0.00705608)
(0.144037 -0.00498522 0.00791361)
(0.146468 -0.00344216 0.00850939)
(0.144729 -0.00179476 0.00817029)
(0.139558 -0.000451844 0.00652533)
(0.133595 0.000267145 0.00380423)
(0.129041 0.00027885 0.000516273)
(0.126081 -0.000369217 -0.00328879)
(0.131394 8.62624e-06 -0.00459313)
(0.12813 -0.00118301 -0.00841818)
(0.123491 -0.00188155 -0.00896052)
(0.119289 -0.00193998 -0.00631249)
(0.117228 -0.00225146 -0.00296356)
(0.117639 -0.00294602 -0.000748457)
(0.11976 -0.00331773 -2.92617e-05)
(0.122758 -0.00327613 -0.000550684)
(0.125837 -0.00330245 -0.00220029)
(0.12717 -0.003349 -0.00456349)
(0.123535 -0.00300695 -0.00594963)
(0.113409 -0.00203593 -0.00453478)
(0.101919 0.000180944 -0.00138467)
(0.0972357 0.00341475 0.000217386)
(0.101305 0.00526356 -0.0015356)
(0.110757 0.00367849 -0.00587125)
(0.121025 -0.000807685 -0.0104607)
(0.128693 -0.00595839 -0.0135516)
(0.132814 -0.00938361 -0.0146849)
(0.134361 -0.00939846 -0.0140316)
(0.133017 -0.00556966 -0.0125282)
(0.126059 0.00054396 -0.0114468)
(0.116124 0.00551902 -0.00963703)
(0.109222 0.00575218 -0.00574569)
(0.106262 0.000744095 -0.00181121)
(0.106684 -0.00620269 0.00108205)
(0.109994 -0.0110952 0.00348291)
(0.1145 -0.0126458 0.005038)
(0.118697 -0.0118386 0.00521992)
(0.122452 -0.0101317 0.0044719)
(0.126575 -0.00853978 0.00384642)
(0.13172 -0.00747015 0.00413951)
(0.137682 -0.0067593 0.00546108)
(0.143415 -0.00588324 0.00731253)
(0.147458 -0.0044452 0.00884977)
(0.148529 -0.00255486 0.00928476)
(0.146362 -0.000733795 0.00828074)
(0.142035 0.000466285 0.0061445)
(0.13737 0.000906175 0.0034207)
(0.133843 0.000764704 -7.02997e-05)
(0.13652 0.00149246 -0.00226632)
(0.133961 0.000932298 -0.00688413)
(0.129572 0.000124726 -0.00860088)
(0.125552 -0.000719559 -0.00651756)
(0.12392 -0.00188944 -0.00278807)
(0.12423 -0.00317724 0.000141717)
(0.125331 -0.00385751 0.00108118)
(0.126972 -0.00390988 4.77512e-05)
(0.129337 -0.00395725 -0.00224223)
(0.131729 -0.00403996 -0.00473226)
(0.13153 -0.00345978 -0.00601293)
(0.124967 -0.00180192 -0.00475129)
(0.113079 0.000836097 -0.0019071)
(0.104723 0.00378176 -0.000986298)
(0.106007 0.00507134 -0.00362243)
(0.113852 0.00297368 -0.00801643)
(0.122698 -0.00184112 -0.0118517)
(0.129356 -0.00707435 -0.0140083)
(0.132797 -0.0105247 -0.0144165)
(0.133781 -0.0107252 -0.0137077)
(0.13353 -0.00698045 -0.0125645)
(0.130298 -0.00045494 -0.0115988)
(0.122557 0.00512754 -0.0107021)
(0.113918 0.00564576 -0.00924005)
(0.108538 0.000602456 -0.00711917)
(0.107904 -0.00611357 -0.00409643)
(0.110683 -0.0104999 -0.000698804)
(0.114478 -0.0115822 0.00162772)
(0.117926 -0.0105805 0.00207633)
(0.121101 -0.00897176 0.00129745)
(0.1249 -0.00766667 0.000708673)
(0.130058 -0.00695054 0.0014108)
(0.136304 -0.00659377 0.00356555)
(0.142355 -0.00605854 0.006449)
(0.146674 -0.00492008 0.00896207)
(0.148284 -0.00320551 0.010153)
(0.147299 -0.00134256 0.00967587)
(0.144642 0.000161308 0.00789658)
(0.141332 0.00106465 0.00545793)
(0.138437 0.00149716 0.00226721)
(0.139138 0.0022594 -0.0004124)
(0.137969 0.00261522 -0.00518848)
(0.135248 0.00209972 -0.00750653)
(0.132599 0.000666949 -0.00591002)
(0.131535 -0.00128498 -0.00220035)
(0.131238 -0.00304975 0.00102837)
(0.130776 -0.00395574 0.00233111)
(0.130496 -0.00410922 0.00144229)
(0.131141 -0.00413592 -0.00109505)
(0.132728 -0.00423267 -0.00398205)
(0.133908 -0.00365663 -0.00555013)
(0.131231 -0.00169275 -0.00454143)
(0.122429 0.00135817 -0.00168495)
(0.112729 0.00419684 -0.000256001)
(0.109953 0.00497645 -0.00230945)
(0.114544 0.00258024 -0.00652961)
(0.121824 -0.00214534 -0.0102999)
(0.127933 -0.00715027 -0.0117994)
(0.131299 -0.0105856 -0.0112183)
(0.132242 -0.0112651 -0.0103826)
(0.132165 -0.00828835 -0.0103891)
(0.131026 -0.0020626 -0.010825)
(0.126464 0.00394011 -0.0113077)
(0.119144 0.00510731 -0.0114832)
(0.113581 0.000682317 -0.0103431)
(0.112135 -0.00533572 -0.00723437)
(0.113349 -0.00904971 -0.00339721)
(0.115395 -0.00971592 -0.000870124)
(0.11755 -0.00865426 -0.000529622)
(0.119947 -0.00725072 -0.00157747)
(0.123259 -0.00631873 -0.00240823)
(0.128169 -0.00605774 -0.00170943)
(0.134584 -0.0061248 0.000894335)
(0.141183 -0.00589844 0.00468685)
(0.146051 -0.00497474 0.00828795)
(0.14789 -0.00340824 0.0104086)
(0.146892 -0.00168795 0.010561)
(0.14446 -0.000271843 0.0091591)
(0.141952 0.000717592 0.00692387)
(0.14008 0.00150938 0.00391954)
(0.1408 0.00210527 0.00135426)
(0.140822 0.00337337 -0.00318313)
(0.140389 0.00354296 -0.0057946)
(0.139594 0.00207123 -0.00494754)
(0.138806 -0.000283028 -0.00208498)
(0.137472 -0.00237226 0.000549492)
(0.13538 -0.00358672 0.0019005)
(0.133336 -0.00396578 0.00170429)
(0.132491 -0.00399694 -8.87378e-05)
(0.133199 -0.00397527 -0.00276463)
(0.134544 -0.00337346 -0.00463229)
(0.133953 -0.00136551 -0.00394733)
(0.128465 0.0018672 -0.000904746)
(0.119805 0.00484235 0.00143742)
(0.114478 0.00566696 0.000333392)
(0.115745 0.00349029 -0.00353218)
(0.120782 -0.000816327 -0.006884)
(0.125813 -0.0055 -0.00714105)
(0.129285 -0.00908744 -0.00514714)
(0.131092 -0.0105881 -0.00414602)
(0.131529 -0.00893152 -0.00585381)
(0.130888 -0.00374821 -0.00877817)
(0.128461 0.00218413 -0.0111295)
(0.124155 0.004141 -0.0122565)
(0.120289 0.00085785 -0.0113221)
(0.117892 -0.00405128 -0.00819302)
(0.116505 -0.0069919 -0.00457799)
(0.116263 -0.0073683 -0.00250778)
(0.117258 -0.00638555 -0.00264309)
(0.119254 -0.00527614 -0.00410804)
(0.122239 -0.00477204 -0.00537898)
(0.126591 -0.00501853 -0.00514729)
(0.132617 -0.00557543 -0.00274455)
(0.139602 -0.00569492 0.00154723)
(0.14549 -0.00491756 0.00633934)
(0.148378 -0.00338099 0.00981253)
(0.148035 -0.00171225 0.0109422)
(0.145846 -0.0004858 0.0100511)
(0.143372 0.000230921 0.00806859)
(0.141523 0.00092774 0.00531207)
(0.143087 0.0015179 0.0033998)
(0.14319 0.00316506 -0.000651027)
(0.14408 0.00396062 -0.00350211)
(0.144689 0.00299506 -0.00386398)
(0.144144 0.000909109 -0.0025622)
(0.142147 -0.00111106 -0.000975206)
(0.139113 -0.002501 0.000370285)
(0.136109 -0.00319677 0.00119219)
(0.134452 -0.00353681 0.000823202)
(0.134721 -0.00378021 -0.00101451)
(0.136184 -0.00344059 -0.00326475)
(0.136748 -0.00148401 -0.00374699)
(0.133442 0.00208142 -0.00125753)
(0.126035 0.00560929 0.00189345)
(0.119238 0.00698857 0.00210248)
(0.117373 0.00535095 -0.000646039)
(0.119799 0.00163746 -0.00259944)
(0.123917 -0.00260991 -0.00113902)
(0.128206 -0.00638598 0.00201963)
(0.131613 -0.00868246 0.00299832)
(0.133138 -0.00831936 -0.000194653)
(0.132585 -0.00473276 -0.00572215)
(0.130823 0.000141246 -0.0102198)
(0.128527 0.00245118 -0.0120769)
(0.125431 0.000776408 -0.0111571)
(0.121228 -0.00241807 -0.0083556)
(0.117625 -0.00442653 -0.00542217)
(0.116411 -0.00473379 -0.00391732)
(0.117527 -0.00409162 -0.00424765)
(0.119909 -0.00343582 -0.00573934)
(0.122785 -0.00340212 -0.00731111)
(0.126247 -0.00411431 -0.00791685)
(0.131048 -0.00508505 -0.00657355)
(0.137535 -0.00549703 -0.00271383)
(0.1443 -0.00480814 0.00290696)
(0.148786 -0.00324366 0.00812993)
(0.149819 -0.00156342 0.0109583)
(0.148432 -0.000449555 0.0110579)
(0.146263 6.21684e-06 0.00942442)
(0.14427 0.00040582 0.00687898)
(0.146102 0.00103021 0.00567833)
(0.145828 0.00250013 0.0023496)
(0.14636 0.00345346 -0.000426752)
(0.146706 0.00299519 -0.00186752)
(0.145883 0.00156766 -0.0021044)
(0.143859 7.16926e-05 -0.00158262)
(0.141209 -0.00110615 -0.000462791)
(0.138638 -0.00191671 0.000997662)
(0.136977 -0.0025862 0.00198005)
(0.136829 -0.00334 0.00149412)
(0.137829 -0.00370013 -0.000466965)
(0.138464 -0.00231546 -0.0021405)
(0.136359 0.001477 -0.00143356)
(0.130228 0.00601078 0.00103708)
(0.122909 0.00856358 0.00228281)
(0.118943 0.00791118 0.00169362)
(0.119793 0.00472492 0.00190986)
(0.12403 0.000212808 0.00417062)
(0.129359 -0.00422771 0.00676914)
(0.133758 -0.00690462 0.00725123)
(0.136122 -0.00676351 0.00389624)
(0.135807 -0.00393954 -0.0026827)
(0.133048 -0.000140215 -0.0090467)
(0.128948 0.00203294 -0.0122783)
(0.124092 0.00161354 -0.011995)
(0.119754 -0.000124871 -0.00948446)
(0.117654 -0.00161907 -0.00653743)
(0.11814 -0.0023157 -0.00455848)
(0.120178 -0.00241866 -0.00414677)
(0.12254 -0.00247279 -0.00513917)
(0.124634 -0.00292856 -0.00695715)
(0.126766 -0.00386161 -0.00874641)
(0.129966 -0.00491276 -0.00922207)
(0.13521 -0.00539738 -0.00694547)
(0.142073 -0.00470417 -0.0016108)
(0.148072 -0.00298425 0.00496613)
(0.150816 -0.0011336 0.00999047)
(0.150442 -1.97721e-05 0.011886)
(0.148799 0.000213769 0.0110599)
(0.147211 0.000261968 0.00872944)
(0.150049 0.000760049 0.0074359)
(0.149479 0.0019348 0.00477861)
(0.149018 0.00298263 0.0028736)
(0.148095 0.00293754 0.00184413)
(0.146286 0.0018532 0.0013732)
(0.144014 0.000397193 0.0010922)
(0.142076 -0.000794756 0.00108086)
(0.140808 -0.00147244 0.00166549)
(0.140102 -0.00184323 0.00261835)
(0.139813 -0.0023568 0.00293556)
(0.139718 -0.00292777 0.00173534)
(0.139108 -0.00226694 -0.000231805)
(0.136716 0.00107333 -0.000948398)
(0.131551 0.00615241 0.000323203)
(0.12512 0.00979983 0.00211303)
(0.121289 0.00972209 0.00338028)
(0.122245 0.00608226 0.00449559)
(0.126694 0.000697061 0.00561232)
(0.131731 -0.00403888 0.00644125)
(0.135445 -0.0063068 0.00641501)
(0.137729 -0.00549404 0.00422394)
(0.138639 -0.00232307 -0.000972535)
(0.137282 0.00134586 -0.00729779)
(0.133607 0.00352719 -0.0114799)
(0.129287 0.00348636 -0.0118772)
(0.126316 0.00193795 -0.00931525)
(0.125411 -2.13528e-06 -0.00583469)
(0.125735 -0.00153363 -0.00323197)
(0.12614 -0.00243342 -0.00233981)
(0.126194 -0.00306095 -0.00318111)
(0.126117 -0.00380457 -0.0053352)
(0.126618 -0.0047011 -0.00807476)
(0.1286 -0.00549385 -0.0101748)
(0.13275 -0.00575916 -0.00988203)
(0.139054 -0.00498922 -0.00597367)
(0.145959 -0.00308226 0.000683455)
(0.15082 -0.000849381 0.00734462)
(0.152418 0.000568607 0.0114099)
(0.151891 0.000762865 0.012081)
(0.150877 0.000449635 0.0102591)
(0.154493 0.000935485 0.00790858)
(0.153928 0.00163385 0.00559532)
(0.152988 0.00249895 0.00445457)
(0.151208 0.00254143 0.00430955)
(0.148383 0.00152316 0.00435802)
(0.145212 -5.81812e-06 0.00389611)
(0.142839 -0.00120394 0.00296944)
(0.141861 -0.00160853 0.00227298)
(0.141909 -0.00137204 0.00228505)
(0.142121 -0.00112256 0.00253526)
(0.141687 -0.00118351 0.00195845)
(0.139945 -0.000694581 0.000411516)
(0.136493 0.00189698 -0.000662411)
(0.131519 0.00644434 2.35486e-05)
(0.126537 0.0100369 0.00192234)
(0.124231 0.00977662 0.00354914)
(0.12587 0.00573576 0.00407243)
(0.129996 0.000374344 0.00392052)
(0.134187 -0.00374683 0.00397384)
(0.136916 -0.00522262 0.00409825)
(0.138252 -0.0039091 0.00290169)
(0.139174 -0.000618009 -0.000741342)
(0.139972 0.0029496 -0.00575079)
(0.140329 0.00498841 -0.00949018)
(0.140733 0.00464932 -0.0101089)
(0.141604 0.00247899 -0.0079801)
(0.141918 -0.000177746 -0.00494304)
(0.140201 -0.00212609 -0.00265071)
(0.136464 -0.00310715 -0.00178847)
(0.132228 -0.00373841 -0.00236033)
(0.129095 -0.00474014 -0.00414869)
(0.127806 -0.00607277 -0.00681576)
(0.128499 -0.00701469 -0.00962867)
(0.131259 -0.00702784 -0.0110252)
(0.136128 -0.00601927 -0.00913881)
(0.142527 -0.00399093 -0.00365243)
(0.148708 -0.00137362 0.003314)
(0.152805 0.000680696 0.00884661)
(0.154522 0.00134941 0.0111686)
(0.154801 0.00104021 0.0103651)
(0.15748 0.00101569 0.00723683)
(0.156957 0.00118308 0.0056174)
(0.155642 0.0013846 0.00479108)
(0.153085 0.00110316 0.00481542)
(0.148948 0.000196834 0.0049578)
(0.144287 -0.00102061 0.00452129)
(0.141192 -0.00194807 0.00338761)
(0.140659 -0.00194036 0.00209732)
(0.141793 -0.000978788 0.00136165)
(0.142958 0.000219345 0.00126468)
(0.142808 0.00104886 0.00103397)
(0.140531 0.00191044 0.000112878)
(0.136162 0.00388748 -0.000756926)
(0.130958 0.00696588 -0.000399434)
(0.126998 0.00901667 0.00093488)
(0.126036 0.0079396 0.00180597)
(0.128308 0.00415703 0.00161596)
(0.132486 -6.95132e-05 0.00142032)
(0.136583 -0.00277849 0.00220558)
(0.13917 -0.0032083 0.00340089)
(0.140181 -0.00146232 0.00337565)
(0.140814 0.00157408 0.000972848)
(0.14239 0.00446082 -0.00301043)
(0.14536 0.00571299 -0.00631715)
(0.149169 0.00477563 -0.00723258)
(0.152173 0.00252173 -0.00591183)
(0.152128 0.000544618 -0.00382098)
(0.148221 -0.000342423 -0.00231406)
(0.142364 -0.000825003 -0.00176292)
(0.137708 -0.00209356 -0.00188473)
(0.135646 -0.00447756 -0.00263386)
(0.134987 -0.00715412 -0.00443797)
(0.134288 -0.00880917 -0.00737906)
(0.133897 -0.00871424 -0.0102602)
(0.135241 -0.00729355 -0.0108354)
(0.139038 -0.00523743 -0.0076092)
(0.144624 -0.00283134 -0.00162649)
(0.150329 -0.000575469 0.00428277)
(0.15461 0.000765777 0.00785288)
(0.156907 0.00106927 0.0085113)
(0.155676 0.00157209 0.00494014)
(0.155892 0.00181425 0.00532207)
(0.153651 0.00186537 0.00611818)
(0.149068 0.00166752 0.00708427)
(0.143499 0.000913065 0.00764278)
(0.139397 -0.000708401 0.00731557)
(0.138325 -0.00258114 0.00584226)
(0.139859 -0.00326714 0.00347341)
(0.142451 -0.00200526 0.00114413)
(0.144416 0.000393347 -0.000149976)
(0.144413 0.00255126 -0.000335604)
(0.14182 0.0040262 -0.000303739)
(0.137111 0.0054017 -0.000634346)
(0.131991 0.00688676 -0.00104049)
(0.128649 0.0075168 -0.00135543)
(0.128388 0.00639649 -0.00182073)
(0.130923 0.00392691 -0.00203442)
(0.134938 0.00123788 -0.00111605)
(0.138841 -0.000668977 0.000968433)
(0.141356 -0.00112247 0.00324224)
(0.142192 7.50585e-05 0.00450239)
(0.142407 0.00234439 0.00397377)
(0.143536 0.00445444 0.00193637)
(0.145788 0.00512762 -0.000344156)
(0.147588 0.00418138 -0.00171893)
(0.146974 0.00267216 -0.00219089)
(0.14371 0.00163803 -0.00234154)
(0.139922 0.000979173 -0.00224865)
(0.138424 -0.000173428 -0.00138675)
(0.140189 -0.00230109 0.00026794)
(0.143526 -0.00501747 0.00138206)
(0.145713 -0.0075537 0.000304055)
(0.144922 -0.00903578 -0.00328094)
(0.141574 -0.00887611 -0.00784983)
(0.138298 -0.00732064 -0.0109242)
(0.137589 -0.00529388 -0.0105026)
(0.13996 -0.0033481 -0.00665106)
(0.144372 -0.00152151 -0.00153749)
(0.149285 2.34553e-05 0.00243186)
(0.153323 0.00104206 0.0043688)
(0.150949 0.00110029 0.00176217)
(0.152707 0.00224362 0.00390912)
(0.152034 0.00318167 0.00646246)
(0.14888 0.00320855 0.00885212)
(0.145066 0.00175036 0.0102015)
(0.142763 -0.00107037 0.00993637)
(0.142378 -0.0041203 0.00805913)
(0.142956 -0.00562614 0.00501114)
(0.143765 -0.00434392 0.00163514)
(0.144341 -0.000729822 -0.000780374)
(0.143853 0.00337116 -0.00124544)
(0.141477 0.00636622 -0.00018508)
(0.137398 0.00790019 0.000905136)
(0.133199 0.00833029 0.00099471)
(0.130811 0.00800564 0.000237445)
(0.131081 0.00706855 -0.000596142)
(0.133502 0.00564132 -0.000778088)
(0.136971 0.00391434 -6.82196e-05)
(0.140321 0.00225494 0.00125109)
(0.142647 0.00126763 0.0027394)
(0.143624 0.00148385 0.00403129)
(0.143585 0.00280261 0.00478834)
(0.143177 0.00429325 0.0047555)
(0.1426 0.00495916 0.00403633)
(0.141398 0.00457311 0.00313213)
(0.139456 0.00368356 0.00266076)
(0.137833 0.00281962 0.00314689)
(0.13797 0.0019407 0.00480311)
(0.140257 0.000663078 0.00724616)
(0.143832 -0.00125612 0.00929552)
(0.147566 -0.00367185 0.00944791)
(0.150518 -0.00592522 0.00671648)
(0.151446 -0.00717426 0.00134341)
(0.149213 -0.00694255 -0.00497085)
(0.14477 -0.00556177 -0.0100269)
(0.141012 -0.00390909 -0.0119879)
(0.13997 -0.0025845 -0.0104494)
(0.141501 -0.00158251 -0.00679997)
(0.144466 -0.00072172 -0.00304589)
(0.147875 0.000126615 -0.000277108)
(0.148894 -0.000531222 0.000602647)
(0.149477 0.000555189 0.00284606)
(0.14976 0.00224147 0.00524063)
(0.149594 0.00318623 0.00739594)
(0.149184 0.00211722 0.00856755)
(0.14873 -0.000947769 0.00844522)
(0.148136 -0.00449265 0.00724544)
(0.147089 -0.00643186 0.00525125)
(0.145578 -0.00532471 0.00271029)
(0.144024 -0.00124752 0.000272526)
(0.142631 0.00410151 -0.000860933)
(0.141062 0.00844461 5.29988e-05)
(0.139201 0.010583 0.00236311)
(0.13753 0.0108187 0.00474958)
(0.136688 0.0100775 0.00640014)
(0.136974 0.00897091 0.00719769)
(0.138312 0.00760644 0.00735507)
(0.140455 0.00583876 0.00715912)
(0.143045 0.00371641 0.00684415)
(0.145603 0.00176951 0.00654114)
(0.147552 0.000799231 0.00633743)
(0.148444 0.00125427 0.00631172)
(0.148192 0.00272848 0.00640102)
(0.147024 0.00421495 0.00641349)
(0.145325 0.00489913 0.00630268)
(0.143619 0.00466529 0.00630233)
(0.142495 0.00384667 0.00671988)
(0.142323 0.00268472 0.00768592)
(0.143087 0.0011071 0.00889623)
(0.144589 -0.000981229 0.0096649)
(0.146719 -0.0034013 0.00925674)
(0.149297 -0.00552041 0.00708271)
(0.151685 -0.00636353 0.00298699)
(0.152578 -0.00531407 -0.00243801)
(0.151198 -0.00315864 -0.00774155)
(0.148594 -0.00138483 -0.0110456)
(0.146704 -0.000613312 -0.0111792)
(0.146388 -0.000472838 -0.00863308)
(0.147136 -0.00055242 -0.0050554)
(0.14811 -0.000712554 -0.00185979)
(0.150578 -0.00185681 -0.000679542)
(0.14917 -0.00176353 0.00128297)
(0.147779 -0.000736894 0.00277665)
(0.147269 -3.27049e-05 0.00389646)
(0.147779 -0.000796646 0.00456301)
(0.148791 -0.00298978 0.004747)
(0.149479 -0.00546477 0.00450213)
(0.149175 -0.00667345 0.00375506)
(0.147765 -0.00538094 0.00245959)