/*--------------------------------*- C++ -*----------------------------------*\
| =========                 |                                                 |
| \\      /  F ield         | OpenFOAM: The Open Source CFD Toolbox           |
|  \\    /   O peration     | Version:  5.0                                   |
|   \\  /    A nd           | Web:      www.OpenFOAM.org                      |
|    \\/     M anipulation  |                                                 |
\*---------------------------------------------------------------------------*/
FoamFile
{
    version     2.0;
    format      ascii;
    class       volVectorField;
    location    "50.4676134421789371";
    object      U_0;
}
// * * * * * * * * * * * * * * * * * * * * * * * * * * * * * * * * * * * * * //

dimensions      [0 1 -1 0 0 0 0];

internalField   nonuniform List<vector> 
60000
(
(0.0112771 1.70242e-05 0.00177144)
(0.0108086 2.1058e-05 0.00232572)
(0.00978128 2.85924e-05 0.00254113)
(0.00854717 2.3157e-05 0.00222935)
(0.00770047 1.12279e-05 0.00127169)
(0.00746845 6.31499e-06 -7.71368e-05)
(0.00759359 1.66349e-06 -0.00125393)
(0.00796526 6.04371e-06 -0.00172683)
(0.00872953 1.14721e-05 -0.00126492)
(0.00974417 2.18461e-06 -1.17856e-06)
(0.010589 5.1408e-06 0.00141862)
(0.0109484 8.20891e-06 0.00242624)
(0.0107953 9.78073e-06 0.00278411)
(0.01042 1.3379e-05 0.00254752)
(0.0101505 2.94048e-05 0.00187798)
(0.0101008 5.38666e-05 0.000813593)
(0.0102864 5.29781e-05 -0.000572456)
(0.0107481 2.43102e-05 -0.00194595)
(0.0114376 -2.33654e-05 -0.00305334)
(0.0122556 -4.95836e-05 -0.00380415)
(0.0131909 -3.90587e-05 -0.00385278)
(0.0143143 -3.19164e-06 -0.00284054)
(0.0154631 4.37163e-05 -0.000940427)
(0.0164813 5.79158e-05 0.00115474)
(0.0175338 2.84282e-05 0.00275838)
(0.018768 -3.75596e-05 0.00351911)
(0.0199203 -9.79036e-05 0.00359942)
(0.0204351 -0.00012598 0.00339931)
(0.0198845 -0.000118562 0.00312421)
(0.0184274 -8.54829e-05 0.00263584)
(0.016904 -4.30212e-05 0.0017058)
(0.0160453 -1.08811e-05 0.000434323)
(0.0158067 6.60065e-06 -0.000845698)
(0.0156702 -1.79769e-06 -0.00195491)
(0.0149655 -1.35018e-05 -0.00293056)
(0.0133903 -1.67356e-05 -0.00360366)
(0.0117257 -2.99464e-06 -0.00340115)
(0.0109978 2.45455e-05 -0.00212299)
(0.0110401 3.41767e-05 -0.000464285)
(0.0112565 2.70523e-05 0.000879278)
(0.0338832 5.65121e-05 0.00401651)
(0.0330474 0.000172492 0.00532445)
(0.0306456 0.000241048 0.00565345)
(0.0273912 0.00017531 0.00495018)
(0.0245404 2.47558e-05 0.00297741)
(0.0230575 -6.62506e-05 -0.000136837)
(0.0228447 -6.35992e-05 -0.00302037)
(0.0235112 -1.28754e-05 -0.00405998)
(0.0254159 -1.02288e-05 -0.00260605)
(0.0284477 -1.45124e-05 0.000823496)
(0.0313282 7.02362e-05 0.00452641)
(0.0328443 0.00018025 0.00711446)
(0.0325763 0.000226322 0.00797898)
(0.0311888 0.000169316 0.00718729)
(0.0300042 8.65064e-05 0.00515915)
(0.0299697 1.35625e-05 0.00221951)
(0.0311735 -0.000149412 -0.00122806)
(0.0330672 -0.000363479 -0.00446591)
(0.0349654 -0.000502067 -0.00713219)
(0.0364437 -0.000391433 -0.00904804)
(0.0377311 -7.89277e-05 -0.00926371)
(0.0397036 0.000224859 -0.00658794)
(0.0426598 0.000354918 -0.00142261)
(0.0460873 0.000195999 0.00398923)
(0.0498338 -0.000220611 0.00781119)
(0.0538296 -0.000705632 0.00945017)
(0.057355 -0.000994893 0.0094077)
(0.0591525 -0.000980614 0.00865795)
(0.058169 -0.000749878 0.00782183)
(0.0544948 -0.00047297 0.00676177)
(0.0499601 -0.000286824 0.00489709)
(0.0469197 -0.000211711 0.00208654)
(0.0459753 -0.000158562 -0.00105446)
(0.0459449 -0.000101047 -0.00390101)
(0.0448245 -3.09626e-05 -0.00635572)
(0.0410824 4.74039e-06 -0.00816308)
(0.0357344 -3.68298e-05 -0.00826936)
(0.032304 -8.81121e-05 -0.00584862)
(0.0321212 -7.48976e-05 -0.00192907)
(0.0332592 -2.06538e-05 0.00162687)
(0.0536098 -0.000235567 0.00358081)
(0.05374 0.000166678 0.00612195)
(0.0514057 0.000428681 0.00703549)
(0.0474045 0.00036347 0.00654447)
(0.0428401 6.32553e-05 0.00481143)
(0.0390404 -0.00020539 0.00144943)
(0.0371354 -0.000238487 -0.00278736)
(0.0371726 -0.000102355 -0.00533407)
(0.0390236 -7.17239e-05 -0.00442404)
(0.0430092 -0.000138101 -6.33589e-05)
(0.047893 -3.33929e-06 0.00548073)
(0.0513396 0.000284406 0.0098218)
(0.0519157 0.000523383 0.011811)
(0.0499869 0.000497295 0.0113218)
(0.0476307 0.000247556 0.00886953)
(0.0470935 -0.000101217 0.00504135)
(0.048966 -0.000606709 0.00043166)
(0.0519639 -0.00115504 -0.00406234)
(0.0545587 -0.00142492 -0.00790007)
(0.0560637 -0.00101848 -0.0109374)
(0.0568848 -5.20937e-05 -0.012039)
(0.0585226 0.000837991 -0.00911436)
(0.0623879 0.00108885 -0.00188159)
(0.0678033 0.000570927 0.0061938)
(0.0737874 -0.000549223 0.0118814)
(0.0799221 -0.00176087 0.0142732)
(0.0854464 -0.00248506 0.0140735)
(0.0889361 -0.00246966 0.0126456)
(0.0889169 -0.00190332 0.0110708)
(0.084965 -0.00119381 0.00959881)
(0.0786977 -0.000713949 0.00772283)
(0.0731804 -0.000581156 0.0048948)
(0.0704955 -0.000593242 0.00122605)
(0.0701289 -0.000526937 -0.00262949)
(0.0696363 -0.000312998 -0.00621213)
(0.066122 -7.40402e-05 -0.00914925)
(0.0590338 -5.32155e-05 -0.0105286)
(0.0521001 -0.000305867 -0.00925203)
(0.0497727 -0.000533804 -0.00536127)
(0.0514976 -0.000512854 -0.000493844)
(0.0677694 -0.00105549 0.000727924)
(0.0697262 -0.00023622 0.00488276)
(0.0687029 0.000433084 0.00704516)
(0.065197 0.000524743 0.00720237)
(0.0602013 0.000159875 0.00605688)
(0.0547181 -0.000289999 0.00349089)
(0.0504297 -0.000483382 -0.00090819)
(0.0486211 -0.00036192 -0.00512457)
(0.0492842 -0.000249785 -0.00616895)
(0.0525579 -0.000409477 -0.00266986)
(0.0582382 -0.000351452 0.00378664)
(0.0636837 0.000110498 0.00993169)
(0.066008 0.000696937 0.0136149)
(0.0645468 0.000913683 0.014212)
(0.0615065 0.000599606 0.0121321)
(0.0603401 -8.17348e-05 0.00816818)
(0.0626092 -0.00104009 0.00311949)
(0.0666068 -0.00205751 -0.00204536)
(0.0696197 -0.00262126 -0.00666018)
(0.0705055 -0.00204126 -0.0106294)
(0.0702883 -0.000295327 -0.0128281)
(0.0710554 0.00152293 -0.0106319)
(0.0750148 0.00216018 -0.00268332)
(0.0817002 0.00129991 0.00728346)
(0.0892131 -0.000715062 0.0146684)
(0.0965533 -0.00290067 0.0179463)
(0.103079 -0.00427799 0.0178304)
(0.107873 -0.00439883 0.0159239)
(0.109632 -0.00350647 0.013629)
(0.107226 -0.00226157 0.0116169)
(0.101223 -0.00132961 0.00973626)
(0.0943269 -0.00100733 0.00740805)
(0.0894542 -0.00109439 0.00429957)
(0.0874827 -0.00116129 0.000546743)
(0.0869354 -0.000895433 -0.00358543)
(0.0846836 -0.000365636 -0.00759415)
(0.0782359 -8.39898e-05 -0.0104143)
(0.0696318 -0.000417386 -0.0109056)
(0.0642326 -0.00107301 -0.00867927)
(0.064573 -0.00140719 -0.00433689)
(0.078778 -0.00232152 -0.00361409)
(0.0820846 -0.00118737 0.00166465)
(0.0829224 7.17315e-05 0.00558773)
(0.0806986 0.000525517 0.00697807)
(0.0762907 0.000210241 0.00655151)
(0.0704697 -0.00032096 0.00493685)
(0.0646417 -0.000689425 0.0014087)
(0.060597 -0.000733522 -0.00352448)
(0.0591858 -0.00062969 -0.0067637)
(0.0604406 -0.000849897 -0.0055218)
(0.0648552 -0.00102777 0.000341858)
(0.0710887 -0.000497534 0.00780472)
(0.0754577 0.000577674 0.0135062)
(0.0755548 0.00133876 0.0157917)
(0.0728361 0.00117429 0.0145869)
(0.0715661 0.000163028 0.0107217)
(0.0745193 -0.00135156 0.00537196)
(0.0799484 -0.00292454 -0.000148526)
(0.0837737 -0.00385707 -0.00500498)
(0.0836931 -0.00329453 -0.00940455)
(0.0813293 -0.000882598 -0.0125947)
(0.0803631 0.00205582 -0.0115131)
(0.0837687 0.00337886 -0.00376212)
(0.0913136 0.00228729 0.00735305)
(0.0999605 -0.000710361 0.0161221)
(0.107608 -0.00400567 0.020212)
(0.113712 -0.00617889 0.0202687)
(0.118448 -0.00661968 0.0181987)
(0.121584 -0.00555358 0.0155884)
(0.121922 -0.00376285 0.0132006)
(0.118497 -0.00223734 0.0111675)
(0.112536 -0.00155016 0.00918598)
(0.106636 -0.00156581 0.0068806)
(0.102496 -0.00176555 0.00402972)
(0.100149 -0.00161155 0.000340882)
(0.0981959 -0.000900515 -0.00418842)
(0.0937308 -0.000234745 -0.00838628)
(0.0859843 -0.000416702 -0.0106941)
(0.0787899 -0.00140253 -0.0105562)
(0.0763502 -0.00234618 -0.00808693)
(0.0894541 -0.00354836 -0.00780344)
(0.0923732 -0.00263698 -0.00307793)
(0.0946328 -0.000858324 0.00219943)
(0.0942711 0.000195606 0.00540298)
(0.0914093 0.000127646 0.00614117)
(0.0866128 -0.000385271 0.00547243)
(0.0807314 -0.00083639 0.00324446)
(0.075349 -0.00108805 -0.00111823)
(0.0716498 -0.00115522 -0.0057195)
(0.0700125 -0.00144169 -0.00712836)
(0.0712096 -0.00186195 -0.00342143)
(0.0756701 -0.00147072 0.00407014)
(0.0808212 5.66084e-05 0.0114753)
(0.0830254 0.00161958 0.015768)
(0.0820374 0.00197747 0.0158076)
(0.0818831 0.000781084 0.012055)
(0.0861777 -0.00141054 0.00611297)
(0.0933757 -0.00366778 0.000152391)
(0.0984632 -0.00497988 -0.00439133)
(0.0979317 -0.00451374 -0.0082089)
(0.092796 -0.00170165 -0.0117472)
(0.0887404 0.00228654 -0.0118957)
(0.0906391 0.00449912 -0.00503687)
(0.0985401 0.00333866 0.00642629)
(0.107586 -0.000574904 0.0159559)
(0.114165 -0.00496801 0.0203373)
(0.11852 -0.00794583 0.0203318)
(0.122159 -0.00881949 0.0183106)
(0.125641 -0.00787367 0.0159353)
(0.128511 -0.00584137 0.0137728)
(0.129361 -0.00373651 0.0118902)
(0.127251 -0.00244104 0.0101928)
(0.123016 -0.00208503 0.00852269)
(0.11805 -0.00217459 0.00667385)
(0.113279 -0.00210662 0.00415352)
(0.109397 -0.00147454 0.000294542)
(0.105944 -0.000571894 -0.00449877)
(0.100797 -0.000390335 -0.00843554)
(0.0942588 -0.00136247 -0.0103718)
(0.0896679 -0.00283809 -0.0102445)
(0.10109 -0.0039667 -0.00994584)
(0.101597 -0.003882 -0.00724462)
(0.103521 -0.00223897 -0.00241403)
(0.104492 -0.000709052 0.00204112)
(0.103784 -0.000326355 0.00428953)
(0.101285 -0.000628173 0.00476888)
(0.0971194 -0.000998613 0.00388577)
(0.0922176 -0.00132802 0.000907662)
(0.0874521 -0.0016273 -0.00371999)
(0.0830595 -0.00199905 -0.00687396)
(0.0800202 -0.00248602 -0.00573857)
(0.0801295 -0.00227558 0.000260827)
(0.0831759 -0.000525108 0.00807564)
(0.0861044 0.00181161 0.0137172)
(0.0876124 0.00291292 0.0147898)
(0.090332 0.00175007 0.0110177)
(0.0971305 -0.00116558 0.00426023)
(0.105923 -0.00423305 -0.00213318)
(0.112165 -0.00597271 -0.00594544)
(0.112175 -0.00554784 -0.00817519)
(0.1052 -0.00251774 -0.010815)
(0.0973594 0.0021802 -0.0117501)
(0.0964145 0.00525858 -0.00623609)
(0.103028 0.004202 0.00461303)
(0.110406 -0.000361617 0.0138356)
(0.114764 -0.00566718 0.0177938)
(0.117751 -0.0093563 0.0177504)
(0.121041 -0.010635 0.0161748)
(0.12464 -0.00990156 0.0143586)
(0.128351 -0.0079928 0.0126758)
(0.132024 -0.00579142 0.0112429)
(0.134675 -0.00402941 0.0100713)
(0.134992 -0.0030195 0.00907002)
(0.132422 -0.00256624 0.00807194)
(0.127336 -0.00222901 0.00666924)
(0.121209 -0.00163468 0.00411638)
(0.116107 -0.000813549 6.63544e-05)
(0.11228 -0.000392646 -0.0044087)
(0.108072 -0.0010101 -0.0078801)
(0.103632 -0.00254903 -0.00988876)
(0.1129 -0.00330797 -0.00963714)
(0.110943 -0.00412303 -0.00935878)
(0.110447 -0.00328005 -0.00614792)
(0.110519 -0.00193432 -0.00194006)
(0.110635 -0.00135609 0.00110559)
(0.110679 -0.00140393 0.002619)
(0.109922 -0.00148506 0.00294129)
(0.107891 -0.00159997 0.00153743)
(0.104592 -0.00194637 -0.0020268)
(0.099437 -0.00236256 -0.00568571)
(0.0927633 -0.00277546 -0.00629411)
(0.0873603 -0.00252015 -0.00245568)
(0.0859421 -0.000639177 0.00423787)
(0.0876674 0.00228554 0.00967834)
(0.0910795 0.00394142 0.01073)
(0.0973978 0.00273573 0.0065706)
(0.10698 -0.000850722 -0.00047689)
(0.116602 -0.00473192 -0.00649655)
(0.123128 -0.00699166 -0.00931651)
(0.124187 -0.00654714 -0.00977401)
(0.11747 -0.00322386 -0.0105711)
(0.10686 0.00192094 -0.0113053)
(0.101915 0.00565108 -0.00714642)
(0.104851 0.00483873 0.00211611)
(0.109065 -0.000100938 0.00997975)
(0.111788 -0.00615652 0.0132536)
(0.114698 -0.0104688 0.0135618)
(0.118498 -0.0120319 0.0128267)
(0.122473 -0.0113817 0.0116936)
(0.126332 -0.00958818 0.0104194)
(0.130543 -0.00760224 0.00933784)
(0.135346 -0.00593089 0.00869966)
(0.139746 -0.00460144 0.0084827)
(0.141718 -0.00346616 0.00840237)
(0.139681 -0.00244289 0.00797393)
(0.134046 -0.00147922 0.00658077)
(0.127383 -0.00063231 0.00380876)
(0.122316 -0.000182091 1.34861e-05)
(0.119021 -0.000473206 -0.00385347)
(0.115958 -0.00165723 -0.00730055)
(0.123163 -0.00185531 -0.00764061)
(0.119982 -0.00313621 -0.00959708)
(0.116809 -0.00317964 -0.00814884)
(0.114364 -0.00247026 -0.00467215)
(0.113301 -0.00222256 -0.00159826)
(0.114088 -0.00242654 0.000194689)
(0.116101 -0.00243 0.000968097)
(0.118011 -0.00230087 0.000554162)
(0.118529 -0.00243898 -0.0016648)
(0.115837 -0.0026853 -0.00479362)
(0.108429 -0.00280387 -0.00605061)
(0.0984769 -0.00228917 -0.00376044)
(0.0917223 -0.000119503 0.000792204)
(0.0912333 0.00314511 0.00435312)
(0.0960101 0.00491849 0.00407679)
(0.104992 0.00339877 -0.000392375)
(0.115781 -0.000777182 -0.0064548)
(0.124745 -0.00538506 -0.0110075)
(0.130161 -0.00818217 -0.0127704)
(0.131768 -0.00771744 -0.0121736)
(0.127231 -0.00393174 -0.0113116)
(0.1166 0.00166951 -0.0110806)
(0.107977 0.00583582 -0.00803169)
(0.106045 0.00528897 -0.00112863)
(0.10695 7.78537e-05 0.00475608)
(0.108635 -0.0065951 0.00750547)
(0.1119 -0.0112797 0.00861858)
(0.116261 -0.0128354 0.00894673)
(0.12052 -0.0120744 0.00847615)
(0.124469 -0.0103039 0.00753004)
(0.128762 -0.00852465 0.00676045)
(0.133934 -0.00717645 0.00663798)
(0.139685 -0.00608532 0.00720572)
(0.144599 -0.00481644 0.00808077)
(0.146544 -0.00323731 0.00859737)
(0.144245 -0.00161575 0.0081071)
(0.138766 -0.000347739 0.00630444)
(0.132864 0.000289635 0.00348698)
(0.128554 0.000235138 0.000140711)
(0.125774 -0.000473973 -0.00372652)
(0.131096 -0.00010107 -0.00510674)
(0.127715 -0.00128487 -0.00869752)
(0.123043 -0.0019056 -0.00884427)
(0.119007 -0.00197598 -0.00600417)
(0.117206 -0.00237344 -0.0027298)
(0.117828 -0.00307212 -0.000680574)
(0.120063 -0.00335974 -9.32859e-05)
(0.123111 -0.00326519 -0.000690446)
(0.126128 -0.00329476 -0.00240679)
(0.127102 -0.00332351 -0.00475754)
(0.122727 -0.00293063 -0.00591359)
(0.111986 -0.00184696 -0.00420248)
(0.100826 0.000563087 -0.00108574)
(0.0971591 0.00380491 0.000135482)
(0.102075 0.00533799 -0.00202193)
(0.111873 0.00334594 -0.00651468)
(0.122003 -0.00135782 -0.010979)
(0.129297 -0.00644979 -0.0138353)
(0.133077 -0.00957935 -0.0147329)
(0.134389 -0.00915177 -0.0138882)
(0.13248 -0.00492732 -0.0123627)
(0.124764 0.00128936 -0.0113003)
(0.114853 0.00590466 -0.00923605)
(0.108484 0.00547197 -0.00517178)
(0.106 -3.95879e-05 -0.00136738)
(0.106857 -0.00695638 0.00140446)
(0.110441 -0.0115138 0.00370389)
(0.114996 -0.0127341 0.00509105)
(0.119148 -0.0117527 0.00512058)
(0.122926 -0.0100122 0.00434866)
(0.127181 -0.00846235 0.00383342)
(0.132483 -0.00743749 0.00429085)
(0.138506 -0.00671506 0.00573515)
(0.144118 -0.00576045 0.00760231)
(0.147834 -0.00423927 0.00903438)
(0.148447 -0.00232759 0.00928901)
(0.145878 -0.000562996 0.00810771)
(0.141373 0.000544006 0.00586447)
(0.136784 0.000911634 0.00307358)
(0.133464 0.000716166 -0.000535275)
(0.136262 0.00146041 -0.00284243)
(0.133544 0.00085651 -0.00729734)
(0.129087 3.97873e-05 -0.00857843)
(0.1253 -0.000853681 -0.0061807)
(0.123934 -0.00209183 -0.00243458)
(0.124345 -0.00335109 0.000305244)
(0.125464 -0.00392152 0.000998913)
(0.127175 -0.00390068 -0.000205768)
(0.129626 -0.0039568 -0.00254608)
(0.131935 -0.00401621 -0.0049511)
(0.131212 -0.00333734 -0.00599001)
(0.123792 -0.00154698 -0.00443396)
(0.111688 0.00120365 -0.00163078)
(0.10424 0.00410985 -0.00114315)
(0.106557 0.00507321 -0.00414875)
(0.114811 0.00257207 -0.00859249)
(0.123568 -0.00244014 -0.0122665)
(0.129912 -0.00759032 -0.0142009)
(0.133009 -0.010746 -0.014444)
(0.133817 -0.0105072 -0.0136429)
(0.133373 -0.00631097 -0.0124614)
(0.129542 0.000370587 -0.011498)
(0.121344 0.0055646 -0.010545)
(0.112867 0.00534824 -0.00900442)
(0.108056 -0.000186605 -0.00680448)
(0.107997 -0.00683683 -0.00371031)
(0.111071 -0.0108587 -0.000385554)
(0.114913 -0.0116251 0.00172582)
(0.118332 -0.0104862 0.00197867)
(0.121553 -0.00887683 0.00117133)
(0.125517 -0.00763161 0.000734573)
(0.13087 -0.00696508 0.00166771)
(0.137185 -0.00659554 0.00399036)
(0.143094 -0.00598036 0.00689014)
(0.147085 -0.00474643 0.00926093)
(0.1483 -0.00298607 0.0102232)
(0.146999 -0.00114608 0.0095335)
(0.144175 0.000290578 0.00762936)
(0.140856 0.00113052 0.00512378)
(0.138092 0.00151966 0.00180701)
(0.139009 0.00233172 -0.000999065)
(0.137706 0.00261607 -0.00566721)
(0.134903 0.00198542 -0.00755111)
(0.132438 0.000440545 -0.00557665)
(0.131535 -0.00155825 -0.00179034)
(0.131203 -0.00325659 0.00127357)
(0.130679 -0.00403486 0.00231409)
(0.130462 -0.00410465 0.00118374)
(0.131259 -0.00413409 -0.00146785)
(0.132942 -0.00421356 -0.0042738)
(0.133915 -0.00351799 -0.00556991)
(0.130537 -0.00138823 -0.00423298)
(0.121144 0.00174771 -0.00134735)
(0.111852 0.00447359 -0.00030895)
(0.110058 0.00492067 -0.00276773)
(0.115258 0.00215726 -0.0070902)
(0.12261 -0.00273727 -0.0106654)
(0.128475 -0.00766291 -0.0118682)
(0.131518 -0.010845 -0.011172)
(0.132256 -0.0111405 -0.0104303)
(0.132116 -0.00769583 -0.0104966)
(0.130692 -0.00121915 -0.0109059)
(0.1256 0.00444832 -0.0113562)
(0.118173 0.00487147 -0.0114435)
(0.113075 -2.24999e-05 -0.0100926)
(0.112117 -0.00598484 -0.00681605)
(0.113563 -0.00933779 -0.00304908)
(0.115679 -0.00972371 -0.000767356)
(0.11786 -0.0085635 -0.00064712)
(0.120335 -0.00718949 -0.00173045)
(0.12383 -0.00633763 -0.00238957)
(0.128981 -0.0061311 -0.00140415)
(0.135532 -0.00617097 0.00144792)
(0.142007 -0.00584899 0.00530376)
(0.146504 -0.00481622 0.00874763)
(0.147897 -0.00319949 0.0105797)
(0.146587 -0.00150413 0.0104641)
(0.144064 -0.000145345 0.00890657)
(0.141611 0.000805431 0.00659499)
(0.139865 0.00159443 0.0034704)
(0.140745 0.00226444 0.000798472)
(0.14078 0.00348434 -0.00367556)
(0.140297 0.00346557 -0.00591717)
(0.139532 0.00181226 -0.0047119)
(0.13872 -0.000588864 -0.00175774)
(0.137249 -0.00261036 0.000777299)
(0.135054 -0.00370145 0.00196529)
(0.133078 -0.00398546 0.00157094)
(0.132444 -0.00398698 -0.000397082)
(0.133343 -0.00394143 -0.00309133)
(0.134658 -0.00322106 -0.0047207)
(0.133602 -0.00103525 -0.00365076)
(0.127472 0.00228565 -0.000469032)
(0.118789 0.00513009 0.00154305)
(0.114189 0.0056265 -2.96072e-05)
(0.116155 0.00311256 -0.0040554)
(0.121398 -0.00136154 -0.00712937)
(0.126309 -0.00601013 -0.00700041)
(0.129583 -0.00942094 -0.0049686)
(0.131198 -0.0106146 -0.004306)
(0.131489 -0.00850411 -0.0062859)
(0.13069 -0.00297574 -0.00916616)
(0.127981 0.0027426 -0.0113527)
(0.123575 0.00401965 -0.0122756)
(0.119897 0.000273834 -0.0110635)
(0.117674 -0.00459084 -0.00777458)
(0.116438 -0.00721354 -0.00426349)
(0.116359 -0.00735876 -0.00245308)
(0.117479 -0.00630944 -0.00280939)
(0.119574 -0.00525407 -0.00431871)
(0.122704 -0.00485083 -0.00543475)
(0.127289 -0.00516068 -0.00490262)
(0.133552 -0.00568155 -0.00216299)
(0.140541 -0.00567387 0.00232063)
(0.146096 -0.00476398 0.00701931)
(0.148495 -0.00316957 0.010159)
(0.147787 -0.00153969 0.0109272)
(0.145472 -0.000394354 0.00981877)
(0.143043 0.000282105 0.00774941)
(0.141323 0.00102223 0.00489116)
(0.142983 0.00169346 0.00290462)
(0.143229 0.00334672 -0.00113031)
(0.144159 0.00395943 -0.00373912)
(0.14469 0.00278992 -0.00383355)
(0.143972 0.000630683 -0.00241964)
(0.141786 -0.00134996 -0.000816645)
(0.138654 -0.00265339 0.000520654)
(0.135731 -0.00326749 0.00125138)
(0.134319 -0.00357096 0.000685463)
(0.13484 -0.00378266 -0.00132466)
(0.13637 -0.00330392 -0.00350445)
(0.136624 -0.00111626 -0.0036182)
(0.132693 0.00257481 -0.000812101)
(0.124988 0.00597662 0.00215829)
(0.118622 0.00701572 0.00188849)
(0.117419 0.00503886 -0.00102493)
(0.120205 0.0011516 -0.00262881)
(0.124417 -0.00311685 -0.000768224)
(0.128663 -0.00679855 0.00232733)
(0.131893 -0.00884358 0.00279332)
(0.133149 -0.00808048 -0.000897091)
(0.132376 -0.0041497 -0.00645704)
(0.130531 0.000638541 -0.0106293)
(0.1282 0.00244667 -0.0121057)
(0.124986 0.000379384 -0.0108884)
(0.120739 -0.00279529 -0.00798715)
(0.117355 -0.00459323 -0.00517975)
(0.116442 -0.00473695 -0.0039076)
(0.117747 -0.00405023 -0.00443585)
(0.120191 -0.00345554 -0.00599934)
(0.123108 -0.00353069 -0.00749368)
(0.126719 -0.0043132 -0.00786463)
(0.131803 -0.00524112 -0.00614154)
(0.138504 -0.00550268 -0.00190731)
(0.145111 -0.00465562 0.00381508)
(0.149121 -0.00302955 0.00876269)
(0.149712 -0.00140093 0.0111334)
(0.148132 -0.000389327 0.0108841)
(0.145953 1.0862e-05 0.00910146)
(0.144027 0.000466596 0.00648012)
(0.145973 0.00117033 0.0052507)
(0.1458 0.00268062 0.00193684)
(0.146369 0.00350135 -0.000730293)
(0.146619 0.00287304 -0.00202199)
(0.14564 0.00136796 -0.00213602)
(0.143504 -0.000120946 -0.00150267)
(0.140818 -0.00124903 -0.000279864)
(0.138305 -0.00201756 0.00120337)
(0.136817 -0.00267955 0.00205361)
(0.136884 -0.00343112 0.0013216)
(0.137968 -0.00366351 -0.000768155)
(0.13841 -0.00197234 -0.00224927)
(0.135783 0.0020757 -0.00118979)
(0.129216 0.00653882 0.00131979)
(0.122074 0.0087327 0.00227816)
(0.118715 0.00769291 0.00160795)
(0.120114 0.00424929 0.00210062)
(0.124631 -0.000367954 0.00457803)
(0.129942 -0.0047088 0.00706522)
(0.134144 -0.00707488 0.00711459)
(0.13622 -0.00656125 0.00319224)
(0.135556 -0.00347762 -0.003623)
(0.132552 0.00026397 -0.00970059)
(0.128325 0.00211051 -0.0124386)
(0.123444 0.00141143 -0.0117788)
(0.119308 -0.000377746 -0.00912983)
(0.117538 -0.00178728 -0.00626484)
(0.118274 -0.00238269 -0.00448436)
(0.120398 -0.00244374 -0.00428257)
(0.122729 -0.0025348 -0.00542533)
(0.124784 -0.00306813 -0.00729367)
(0.126997 -0.00405573 -0.00897145)
(0.130468 -0.0050729 -0.00910037)
(0.136064 -0.0054101 -0.00631166)
(0.143028 -0.00453398 -0.000606611)
(0.14867 -0.00274031 0.00590989)
(0.150883 -0.000958925 0.0104921)
(0.150204 1.44227e-05 0.0118905)
(0.148531 0.000166535 0.0107621)
(0.147004 0.000268974 0.00832792)
(0.149915 0.000848258 0.00703019)
(0.149354 0.00210862 0.0044793)
(0.148851 0.00308022 0.00268871)
(0.147819 0.00287381 0.00174466)
(0.145921 0.00167417 0.00130711)
(0.143677 0.000199899 0.00105026)
(0.141842 -0.000934862 0.00111077)
(0.140665 -0.00154073 0.00179456)
(0.140018 -0.00189125 0.00275585)
(0.139775 -0.00244048 0.00290815)
(0.139669 -0.00296657 0.00149776)
(0.138904 -0.00202271 -0.000457209)
(0.136165 0.00168331 -0.000917543)
(0.130655 0.00681547 0.000540477)
(0.124321 0.01009 0.00229541)
(0.121064 0.00949293 0.00351558)
(0.122622 0.0054738 0.00466394)
(0.127317 -2.55917e-06 0.00579786)
(0.132245 -0.0045133 0.00658645)
(0.135755 -0.00639044 0.00636879)
(0.137908 -0.00519783 0.00376526)
(0.138629 -0.00183749 -0.00178429)
(0.136958 0.00174209 -0.00803023)
(0.133083 0.00364263 -0.0117589)
(0.12882 0.00333529 -0.0116888)
(0.126072 0.00166973 -0.00890749)
(0.12535 -0.000254184 -0.00548466)
(0.125704 -0.00168792 -0.00309647)
(0.126062 -0.00251431 -0.00244323)
(0.126075 -0.00314118 -0.00348384)
(0.126024 -0.00392102 -0.00576524)
(0.126672 -0.00483674 -0.00850226)
(0.128931 -0.0055953 -0.0103595)
(0.133442 -0.00574583 -0.0095526)
(0.140013 -0.00479648 -0.00509003)
(0.146816 -0.00277348 0.00178254)
(0.151216 -0.000603861 0.00818042)
(0.15238 0.000625995 0.0117142)
(0.151698 0.00067604 0.011909)
(0.150706 0.000388363 0.00985456)
(0.15438 0.000954738 0.00750585)
(0.153766 0.0017654 0.00535088)
(0.152723 0.00259869 0.00440106)
(0.15079 0.00249223 0.00434647)
(0.147868 0.00133756 0.00434989)
(0.14476 -0.000214643 0.00378891)
(0.142591 -0.00133118 0.00283179)
(0.141817 -0.00161283 0.00221868)
(0.141948 -0.00131604 0.0023345)
(0.142113 -0.0011048 0.00255867)
(0.141529 -0.00118952 0.00182532)
(0.139554 -0.000519026 0.0002066)
(0.135845 0.00241148 -0.000709992)
(0.130728 0.00707583 0.000196679)
(0.125946 0.0103092 0.00214909)
(0.124167 0.0094761 0.0036679)
(0.126283 0.00506858 0.00407433)
(0.130562 -0.000292512 0.00393088)
(0.134607 -0.00411561 0.00405397)
(0.137094 -0.00520619 0.00410571)
(0.138322 -0.00356139 0.00260291)
(0.139277 -0.000123882 -0.00135713)
(0.140084 0.00333745 -0.00636613)
(0.140452 0.00507966 -0.00975059)
(0.140938 0.00443611 -0.00993742)
(0.141795 0.00211161 -0.00759062)
(0.141839 -0.000500513 -0.00461093)
(0.13974 -0.00230557 -0.00251814)
(0.135785 -0.0031795 -0.00185784)
(0.131601 -0.00382325 -0.00259681)
(0.128683 -0.00489748 -0.00452413)
(0.127657 -0.0062337 -0.00728041)
(0.128634 -0.00707501 -0.0100138)
(0.131713 -0.00695401 -0.0110243)
(0.1369 -0.00580015 -0.00853779)
(0.143442 -0.00363576 -0.00262119)
(0.149433 -0.00102473 0.00431486)
(0.153151 0.000847082 0.00942571)
(0.154581 0.00130706 0.0112087)
(0.154736 0.000945691 0.0100342)
(0.157403 0.000994668 0.00695672)
(0.156754 0.00121782 0.00542494)
(0.155302 0.0014065 0.00476759)
(0.152532 0.00104206 0.00488025)
(0.148235 4.45848e-05 0.00497576)
(0.143685 -0.00120352 0.00441842)
(0.140956 -0.00203909 0.00319512)
(0.140761 -0.00186354 0.00192854)
(0.142004 -0.000794127 0.00130648)
(0.143052 0.000382521 0.00127889)
(0.142633 0.00115474 0.000987517)
(0.140023 0.00208633 -1.07033e-05)
(0.135409 0.00425967 -0.000808713)
(0.130223 0.00737599 -0.000296143)
(0.126594 0.00910782 0.0010504)
(0.126119 0.00758429 0.00177937)
(0.128775 0.00358313 0.0015228)
(0.133066 -0.000534952 0.00145826)
(0.137008 -0.00296864 0.00239559)
(0.139329 -0.00307948 0.00354436)
(0.140194 -0.00109086 0.00323388)
(0.140913 0.00201207 0.000507836)
(0.142722 0.00474742 -0.00352703)
(0.145911 0.00570247 -0.00656619)
(0.149759 0.00451192 -0.00712318)
(0.152453 0.0022126 -0.00561775)
(0.151805 0.000385199 -0.00357958)
(0.147395 -0.000368249 -0.00223452)
(0.141489 -0.000892951 -0.00180328)
(0.137163 -0.00233112 -0.00199414)
(0.135398 -0.00483972 -0.00285938)
(0.134778 -0.00746688 -0.00485256)
(0.134051 -0.0089001 -0.00790217)
(0.133829 -0.00857602 -0.010594)
(0.135538 -0.00703715 -0.0106352)
(0.139707 -0.00491864 -0.00684189)
(0.145461 -0.00248801 -0.00066248)
(0.151047 -0.000326738 0.00500732)
(0.155043 0.000838098 0.00811084)
(0.157045 0.00103101 0.0083782)
(0.155787 0.00160435 0.00494789)
(0.155662 0.00183103 0.00539827)
(0.15307 0.00187632 0.00628194)
(0.148249 0.00163411 0.00724806)
(0.142757 0.000748958 0.00771088)
(0.139055 -0.00100693 0.00721589)
(0.138427 -0.00281813 0.00555664)
(0.140216 -0.00322768 0.00309733)
(0.14282 -0.00169417 0.000855043)
(0.144576 0.000763936 -0.000241837)
(0.144218 0.00281642 -0.000298376)
(0.141254 0.00420736 -0.000283935)
(0.13634 0.00559938 -0.000680857)
(0.131329 0.00705227 -0.00111566)
(0.128377 0.00748862 -0.00147718)
(0.12857 0.00614178 -0.00196501)
(0.131412 0.00356748 -0.00205786)
(0.135503 0.000923973 -0.000925804)
(0.139262 -0.000825019 0.00128948)
(0.141512 -0.00104806 0.00351841)
(0.142157 0.000354372 0.00457412)
(0.142418 0.00268033 0.00379311)
(0.143743 0.00464395 0.0016334)
(0.146055 0.00506666 -0.000572196)
(0.147598 0.00397133 -0.00180833)
(0.146544 0.00250077 -0.00223212)
(0.143024 0.00156327 -0.00239267)
(0.139415 0.000896453 -0.00225259)
(0.138412 -0.000392229 -0.00126508)
(0.14058 -0.00265521 0.000411767)
(0.143933 -0.00541192 0.00129936)
(0.145762 -0.00786182 -0.000156778)
(0.144494 -0.00914108 -0.00400065)
(0.140943 -0.0087338 -0.00850467)
(0.137919 -0.00705011 -0.0111441)
(0.137693 -0.00501671 -0.0101312)
(0.140473 -0.0030854 -0.00590717)
(0.145071 -0.00127913 -0.000836725)
(0.149923 0.000196567 0.00282374)
(0.153735 0.00112761 0.00447204)
(0.151264 0.00124024 0.00202586)
(0.152722 0.00240072 0.00425003)
(0.151657 0.00327327 0.00685599)
(0.148282 0.00311916 0.00916888)
(0.144606 0.00142067 0.0103175)
(0.142625 -0.00155158 0.00979904)
(0.142447 -0.00451196 0.00769846)
(0.143074 -0.00566013 0.0045171)
(0.143871 -0.0039442 0.00117149)
(0.144357 -0.000105832 -0.00100344)
(0.14364 0.00391752 -0.00116116)
(0.140968 0.00668777 4.23843e-05)
(0.136734 0.00802301 0.00104376)
(0.132673 0.00832852 0.000963544)
(0.130645 0.00792031 0.000111238)
(0.131282 0.00691662 -0.000700747)
(0.133927 0.00543608 -0.000775009)
(0.137448 0.00368384 4.53696e-05)
(0.140692 0.00207096 0.00142795)
(0.142819 0.0012271 0.00293146)
(0.143606 0.00162767 0.00419172)
(0.143468 0.00303899 0.00486308)
(0.143036 0.00445713 0.00471963)
(0.142399 0.00496227 0.00393113)
(0.141071 0.00446393 0.00304078)
(0.139088 0.00356157 0.00266419)
(0.137647 0.00271554 0.00329781)
(0.138119 0.00180868 0.00508901)
(0.140688 0.000450102 0.00755167)
(0.144384 -0.00156417 0.00941034)
(0.148096 -0.00401687 0.00918641)
(0.150855 -0.00618828 0.00602549)
(0.151359 -0.00724977 0.000396937)
(0.148652 -0.00680996 -0.00587568)
(0.144085 -0.00532913 -0.0105695)
(0.140642 -0.00370044 -0.0119905)
(0.140036 -0.00243031 -0.0100116)
(0.141863 -0.00145358 -0.00622561)
(0.144943 -0.000605231 -0.00258791)
(0.148334 0.000240458 2.17797e-05)
(0.14896 -0.000461326 0.000914817)
(0.149494 0.00076294 0.00317778)
(0.149713 0.00245613 0.0055919)
(0.149505 0.00317924 0.00766105)
(0.149108 0.00177333 0.0086567)
(0.148669 -0.00149879 0.00835888)
(0.148035 -0.00495135 0.00702669)
(0.146896 -0.00650869 0.00492448)
(0.145328 -0.00490601 0.00232622)
(0.14379 -0.000481105 -1.82582e-05)
(0.142402 0.00487007 -0.000872025)
(0.140793 0.00892938 0.000338191)
(0.138925 0.0107333 0.00277034)
(0.137334 0.01076 0.00510201)
(0.136634 0.00994418 0.00662337)
(0.137067 0.00880973 0.00729111)
(0.138532 0.00740059 0.00735392)
(0.140771 0.00556468 0.00710966)
(0.143404 0.00341468 0.00678305)
(0.145923 0.00155288 0.00649307)
(0.14774 0.000777063 0.00632433)
(0.148448 0.00142987 0.00633699)
(0.148025 0.00297885 0.00643682)
(0.14674 0.00439047 0.00642686)
(0.145002 0.00493521 0.00630791)
(0.143354 0.00459404 0.00634401)
(0.142364 0.00372216 0.00683622)
(0.142347 0.00252162 0.00787461)
(0.143238 0.000883947 0.00908084)
(0.144851 -0.00126955 0.00973837)
(0.14708 -0.00371112 0.00909937)
(0.149704 -0.00573325 0.00662363)
(0.151972 -0.0063299 0.0022582)
(0.152542 -0.00504055 -0.00326672)
(0.150867 -0.00284423 -0.00840247)
(0.148249 -0.00119716 -0.0112797)
(0.146573 -0.000544857 -0.0109451)
(0.146463 -0.000451629 -0.0081321)
(0.147284 -0.00056116 -0.0045469)
(0.148228 -0.000730817 -0.00147062)
(0.150383 -0.00194778 -0.000371814)
(0.148896 -0.00166698 0.00151054)
(0.147574 -0.000582311 0.00295677)
(0.14722 -3.73714e-05 0.00402663)
(0.147859 -0.00105425 0.00463504)
(0.148898 -0.00339341 0.00476582)
(0.149492 -0.00578726 0.00446156)
(0.14902 -0.00668523 0.00362707)