/*--------------------------------*- C++ -*----------------------------------*\
| =========                 |                                                 |
| \\      /  F ield         | OpenFOAM: The Open Source CFD Toolbox           |
|  \\    /   O peration     | Version:  5.0                                   |
|   \\  /    A nd           | Web:      www.OpenFOAM.org                      |
|    \\/     M anipulation  |                                                 |
\*---------------------------------------------------------------------------*/
FoamFile
{
    version     2.0;
    format      ascii;
    class       volVectorField;
    location    "50.4676134421789371";
    object      UMean;
}
// * * * * * * * * * * * * * * * * * * * * * * * * * * * * * * * * * * * * * //

dimensions      [0 1 -1 0 0 0 0];

internalField   nonuniform List<vector> 
60000
(
(0.0112208 2.39981e-05 0.00192529)
(0.0106514 2.88104e-05 0.00245419)
(0.00956122 3.42837e-05 0.0026137)
(0.00834613 2.41581e-05 0.00222482)
(0.00759363 9.16948e-06 0.00119519)
(0.00745581 4.59098e-06 -0.000192838)
(0.00762432 1.0147e-06 -0.00137212)
(0.00803367 5.71508e-06 -0.00180001)
(0.00884996 1.11119e-05 -0.00125919)
(0.00987728 3.29499e-06 8.00581e-05)
(0.0106745 8.00604e-06 0.00152992)
(0.0109624 1.21899e-05 0.00251867)
(0.0107789 1.19855e-05 0.00283629)
(0.0104265 1.57949e-05 0.00256239)
(0.0101801 3.43127e-05 0.00184807)
(0.0101145 6.00201e-05 0.000721194)
(0.0102772 5.22707e-05 -0.00072564)
(0.010766 1.72967e-05 -0.00213859)
(0.0115466 -3.44076e-05 -0.00328918)
(0.0125122 -5.98783e-05 -0.00403715)
(0.0136252 -4.90283e-05 -0.00399353)
(0.014888 -6.74841e-06 -0.00284302)
(0.0160668 4.6595e-05 -0.00082303)
(0.0170745 6.07912e-05 0.00133489)
(0.01818 2.35181e-05 0.00292462)
(0.0194756 -4.45928e-05 0.00364922)
(0.0205808 -9.84143e-05 0.00372316)
(0.0208777 -0.000119321 0.00354247)
(0.0200373 -0.000110814 0.00324943)
(0.0184315 -8.02906e-05 0.00266052)
(0.0169779 -3.86738e-05 0.00159449)
(0.0162491 -2.63842e-06 0.00023004)
(0.0160644 1.7262e-05 -0.0010903)
(0.0158392 7.60431e-06 -0.00223132)
(0.0149268 -1.03614e-05 -0.00322232)
(0.0132212 -2.13642e-05 -0.00382257)
(0.0116602 -2.76031e-06 -0.00344621)
(0.0110754 2.744e-05 -0.00202002)
(0.01114 3.92318e-05 -0.000304845)
(0.0112962 3.20309e-05 0.00104383)
(0.0339634 0.000100024 0.00431389)
(0.0328742 0.000207492 0.00548982)
(0.0303016 0.000250347 0.00567964)
(0.0270133 0.00015987 0.00486336)
(0.0242705 1.96802e-06 0.00277069)
(0.0229697 -7.38373e-05 -0.000418396)
(0.0228833 -5.90136e-05 -0.00324284)
(0.0236436 -8.0188e-06 -0.00409951)
(0.0257024 -1.0578e-05 -0.00240698)
(0.028852 -7.56097e-07 0.00118197)
(0.0317092 9.67898e-05 0.00489795)
(0.0330636 0.000208371 0.00737471)
(0.0326173 0.000234017 0.00806465)
(0.0311768 0.000158715 0.00710913)
(0.03007 7.47339e-05 0.00494342)
(0.030139 7.05877e-07 0.00188418)
(0.031406 -0.000170794 -0.0016267)
(0.0333651 -0.000389983 -0.00486884)
(0.0353375 -0.000508084 -0.00753576)
(0.0369114 -0.000367421 -0.00937026)
(0.0383591 -4.57343e-05 -0.00931438)
(0.0405781 0.000249036 -0.00626969)
(0.0437435 0.000356509 -0.000889931)
(0.0473643 0.000156379 0.00449246)
(0.0513681 -0.00030286 0.00814429)
(0.0556002 -0.00079999 0.00961238)
(0.0591681 -0.00105629 0.00948603)
(0.0606859 -0.000989341 0.0087432)
(0.059136 -0.000722941 0.00792325)
(0.0549071 -0.000446636 0.00677987)
(0.0502091 -0.000278674 0.00472079)
(0.0473679 -0.000205586 0.0017266)
(0.0466642 -0.0001371 -0.00149344)
(0.0466646 -6.86236e-05 -0.00435946)
(0.0452348 5.34884e-07 -0.00680347)
(0.0409883 1.03396e-05 -0.00850095)
(0.0354675 -5.08343e-05 -0.00832506)
(0.0323333 -9.16899e-05 -0.00559188)
(0.0324072 -5.48739e-05 -0.00152479)
(0.0335345 1.64621e-05 0.00201451)
(0.0540383 -0.000168261 0.00394609)
(0.0539344 0.000233312 0.00634068)
(0.0514022 0.000453751 0.00706932)
(0.0472707 0.000342159 0.00646006)
(0.0426211 1.87958e-05 0.00464299)
(0.038859 -0.000230653 0.00115927)
(0.0370958 -0.000239118 -0.00308673)
(0.0372695 -9.15631e-05 -0.00544476)
(0.0393007 -7.66332e-05 -0.00422718)
(0.0434993 -0.000125552 0.000382263)
(0.0484616 3.40662e-05 0.00597562)
(0.0517957 0.000339261 0.0102048)
(0.0521485 0.000556925 0.0119915)
(0.0500657 0.00049076 0.011287)
(0.0477548 0.000216948 0.00865966)
(0.0473861 -0.000153557 0.00470071)
(0.0493691 -0.000680383 2.14871e-05)
(0.0523576 -0.00123369 -0.00447215)
(0.0548817 -0.00144184 -0.00830172)
(0.056363 -0.000937197 -0.0112457)
(0.0572577 7.9e-05 -0.0120306)
(0.0591556 0.000937319 -0.00859567)
(0.063318 0.00110513 -0.00104187)
(0.0689415 0.000481449 0.00694241)
(0.0751154 -0.000719829 0.0123304)
(0.0814025 -0.00194818 0.0144274)
(0.0869472 -0.00261161 0.0140526)
(0.0902533 -0.00250346 0.0125823)
(0.0898531 -0.00186758 0.0110364)
(0.0854604 -0.00114481 0.00957192)
(0.0789312 -0.000695451 0.00762093)
(0.0734628 -0.000588955 0.00466005)
(0.0709994 -0.0005901 0.000884533)
(0.0708046 -0.000500912 -0.00301656)
(0.0702393 -0.00026892 -0.00659733)
(0.0663767 -4.63954e-05 -0.00947127)
(0.0589335 -7.03616e-05 -0.0106833)
(0.0520628 -0.000341382 -0.00914602)
(0.0501066 -0.000545699 -0.00502845)
(0.0520181 -0.000479535 -7.47807e-05)
(0.0681525 -0.000967273 0.00115483)
(0.0699114 -0.000132076 0.00517818)
(0.0686945 0.000477277 0.00711784)
(0.0650781 0.000496884 0.00711407)
(0.0599722 9.78752e-05 0.00591012)
(0.0544062 -0.000336507 0.00325224)
(0.0501723 -0.000498782 -0.0012415)
(0.048522 -0.000346995 -0.00534373)
(0.0493677 -0.000251342 -0.00607226)
(0.0528834 -0.000408889 -0.00223043)
(0.0587118 -0.000307456 0.00435301)
(0.0640599 0.000193647 0.0103943)
(0.0661178 0.000764266 0.0138502)
(0.064442 0.000919114 0.0141931)
(0.0614436 0.00055037 0.0119052)
(0.0605249 -0.000169775 0.00780534)
(0.0629605 -0.00115719 0.00269668)
(0.0668489 -0.00217165 -0.00245947)
(0.0696039 -0.0026475 -0.00706843)
(0.0703498 -0.00190401 -0.0109543)
(0.0702191 -5.73837e-05 -0.012818)
(0.0713072 0.00170608 -0.0100161)
(0.0756478 0.00218471 -0.00163108)
(0.0825135 0.00114929 0.00821418)
(0.0900929 -0.00097279 0.0151872)
(0.0974417 -0.00315424 0.018062)
(0.103898 -0.00442173 0.0177003)
(0.108513 -0.00440117 0.0157191)
(0.109964 -0.00341229 0.013454)
(0.107188 -0.00215394 0.0114909)
(0.100932 -0.001272 0.0096099)
(0.0940292 -0.00100542 0.00722035)
(0.0893481 -0.0011048 0.00402938)
(0.0875857 -0.00114477 0.000204714)
(0.0871113 -0.000840389 -0.00396145)
(0.0846584 -0.000312857 -0.00792741)
(0.0778978 -8.6763e-05 -0.0106137)
(0.0692657 -0.000478263 -0.010905)
(0.0642328 -0.00112856 -0.00845871)
(0.0649375 -0.00139506 -0.00394586)
(0.0790815 -0.00222607 -0.00312543)
(0.0822398 -0.00103358 0.00212636)
(0.0828285 0.000158148 0.00579469)
(0.0804572 0.000505694 0.00693728)
(0.075946 0.000140642 0.00641505)
(0.0700048 -0.000378705 0.00473802)
(0.064149 -0.000716674 0.00107903)
(0.0602245 -0.000726128 -0.00385639)
(0.0589986 -0.00062993 -0.00683309)
(0.0605116 -0.000867042 -0.0051666)
(0.0652061 -0.000983656 0.00099359)
(0.0714587 -0.000374795 0.00843312)
(0.0755391 0.000702816 0.0138839)
(0.0753232 0.00137791 0.015838)
(0.0726048 0.00111251 0.0143393)
(0.0716595 3.46712e-05 0.0102869)
(0.0748678 -0.00151235 0.00487997)
(0.0801436 -0.00306411 -0.000597993)
(0.0835114 -0.00388754 -0.00543745)
(0.0830805 -0.0031098 -0.00980907)
(0.0808204 -0.000527539 -0.0126805)
(0.0803197 0.0023507 -0.0109065)
(0.0842851 0.00342633 -0.00255982)
(0.0920791 0.00206327 0.00847617)
(0.100713 -0.00107388 0.0167592)
(0.10825 -0.00434241 0.0203504)
(0.114248 -0.0063591 0.0201049)
(0.118876 -0.00660864 0.0179401)
(0.121812 -0.00540278 0.015347)
(0.121797 -0.00358176 0.0130113)
(0.11802 -0.00212079 0.0110144)
(0.111915 -0.0015157 0.009026)
(0.106084 -0.00157067 0.0066769)
(0.102106 -0.00175951 0.0037447)
(0.0999086 -0.00155692 -5.27409e-05)
(0.0979367 -0.000823176 -0.00462154)
(0.0932115 -0.000212846 -0.00870998)
(0.0853381 -0.00048291 -0.0108256)
(0.0784073 -0.00150004 -0.01048)
(0.0764283 -0.00237489 -0.00778121)
(0.0896638 -0.00350563 -0.0074456)
(0.0926333 -0.00245539 -0.0025468)
(0.0946937 -0.000714521 0.00259114)
(0.094123 0.00020476 0.00549386)
(0.0911193 5.56558e-05 0.00605367)
(0.0861656 -0.000449005 0.00532422)
(0.0801696 -0.000869208 0.0029786)
(0.0747927 -0.00109478 -0.00149511)
(0.0711985 -0.0011599 -0.00596147)
(0.0697653 -0.00146921 -0.00697835)
(0.071309 -0.00183367 -0.00282412)
(0.0760221 -0.00131297 0.00482375)
(0.0810543 0.000260622 0.0120432)
(0.0829478 0.00173914 0.0159494)
(0.0818997 0.00193088 0.0155744)
(0.0820923 0.000601988 0.0115328)
(0.0867176 -0.00163723 0.00552957)
(0.0937611 -0.00384757 -0.000295182)
(0.0982507 -0.00502758 -0.00473949)
(0.0970505 -0.00431633 -0.00860241)
(0.091839 -0.00125188 -0.0119501)
(0.0883965 0.00271574 -0.0113869)
(0.0911234 0.00459977 -0.00377428)
(0.0993969 0.00304971 0.00769866)
(0.108308 -0.0010556 0.0166979)
(0.114651 -0.00540865 0.0205088)
(0.118918 -0.00819198 0.020185)
(0.122556 -0.00884098 0.0180807)
(0.126026 -0.00771973 0.0157227)
(0.128764 -0.00561256 0.0135976)
(0.129319 -0.00355054 0.0117491)
(0.126902 -0.00235167 0.0100735)
(0.12248 -0.00206223 0.00840588)
(0.117432 -0.00216638 0.00651327)
(0.112701 -0.00206791 0.00387282)
(0.108958 -0.00139865 -0.000128216)
(0.105525 -0.000524323 -0.00492672)
(0.10025 -0.000444019 -0.00872291)
(0.0937649 -0.00149424 -0.0104883)
(0.0895063 -0.00294138 -0.0101552)
(0.101073 -0.00401197 -0.00982406)
(0.101801 -0.00374228 -0.00684153)
(0.103692 -0.00206208 -0.00194924)
(0.104534 -0.000657849 0.00228549)
(0.1037 -0.000382155 0.00430409)
(0.101044 -0.000688281 0.00468817)
(0.0966998 -0.00102784 0.00371346)
(0.0916786 -0.00134645 0.000580702)
(0.0868364 -0.00164628 -0.00405118)
(0.0824556 -0.00203205 -0.00691757)
(0.0796647 -0.00247166 -0.0053184)
(0.0801761 -0.00210137 0.00101172)
(0.0833863 -0.000239507 0.00875348)
(0.086213 0.00203709 0.014)
(0.0877443 0.00291253 0.0145478)
(0.0908207 0.00152447 0.0103717)
(0.09791 -0.00147458 0.00354853)
(0.106508 -0.00446208 -0.00257509)
(0.112134 -0.006022 -0.00613356)
(0.111247 -0.00533322 -0.00840494)
(0.103819 -0.00201351 -0.0110505)
(0.0965767 0.00271497 -0.0113836)
(0.0967031 0.00541334 -0.00502916)
(0.10378 0.00387361 0.00591637)
(0.110935 -0.000945888 0.0145784)
(0.115093 -0.00619995 0.017967)
(0.118096 -0.00965809 0.0176463)
(0.121432 -0.0106864 0.0159977)
(0.125055 -0.00977029 0.0141825)
(0.128804 -0.0077731 0.0125302)
(0.132446 -0.00557332 0.0111417)
(0.134889 -0.00387026 0.0100097)
(0.134858 -0.00292378 0.00903032)
(0.131913 -0.00250649 0.00801588)
(0.126567 -0.00217278 0.00651954)
(0.120454 -0.0015694 0.00380522)
(0.115567 -0.000765777 -0.000355426)
(0.111864 -0.000419397 -0.00479433)
(0.107659 -0.00113185 -0.00815914)
(0.103335 -0.00270026 -0.0100248)
(0.112709 -0.00342705 -0.00976185)
(0.11091 -0.00408028 -0.00916223)
(0.110502 -0.0031443 -0.00576579)
(0.110583 -0.00187939 -0.00164375)
(0.110726 -0.00139738 0.00121403)
(0.110745 -0.00144757 0.00262021)
(0.109843 -0.00149006 0.00286867)
(0.10762 -0.00160743 0.00131438)
(0.104074 -0.00196979 -0.0023571)
(0.0986295 -0.0023922 -0.00584123)
(0.0919006 -0.00276204 -0.00605265)
(0.0868622 -0.00233532 -0.00184011)
(0.085909 -0.000264922 0.00486464)
(0.0878703 0.00260276 0.00993015)
(0.0915513 0.00397899 0.0104049)
(0.0982592 0.00246162 0.00580196)
(0.107948 -0.00124347 -0.00124249)
(0.117288 -0.0050293 -0.00690966)
(0.123295 -0.00704532 -0.00936386)
(0.12348 -0.00629177 -0.00976921)
(0.115929 -0.0026756 -0.0107007)
(0.105602 0.00252243 -0.0110544)
(0.101763 0.00585586 -0.00610281)
(0.105237 0.00449468 0.00329136)
(0.109359 -0.000771485 0.0106298)
(0.112066 -0.00677366 0.0134326)
(0.115089 -0.0108144 0.0135345)
(0.118935 -0.0120987 0.012717)
(0.122901 -0.0112688 0.0115466)
(0.126806 -0.0094073 0.0102874)
(0.131131 -0.00742519 0.00926947)
(0.135982 -0.00577037 0.00870861)
(0.140188 -0.00444535 0.00853976)
(0.141694 -0.00331951 0.00844737)
(0.139117 -0.00232089 0.00793196)
(0.133181 -0.00138961 0.00638956)
(0.126606 -0.00058754 0.0034761)
(0.121822 -0.000194524 -0.000371266)
(0.118695 -0.000560868 -0.00422517)
(0.115674 -0.00180732 -0.00762231)
(0.122902 -0.001997 -0.00797951)
(0.119716 -0.00318107 -0.00960963)
(0.116594 -0.00312337 -0.00787518)
(0.114252 -0.00246012 -0.00438714)
(0.113371 -0.00229557 -0.00146034)
(0.114336 -0.00248607 0.000226063)
(0.116387 -0.00242621 0.000947184)
(0.11818 -0.00228596 0.000430305)
(0.118407 -0.00244166 -0.00192075)
(0.115188 -0.00268752 -0.00498073)
(0.107269 -0.00277089 -0.00590959)
(0.0973873 -0.00208563 -0.00332082)
(0.0913038 0.000305631 0.00121628)
(0.0914817 0.00350689 0.00440717)
(0.0967878 0.00494953 0.0036167)
(0.106095 0.00306985 -0.00115358)
(0.116796 -0.00125698 -0.00711229)
(0.125387 -0.00576367 -0.0113402)
(0.13042 -0.00825451 -0.0127612)
(0.131432 -0.00740333 -0.0120134)
(0.125943 -0.00331543 -0.0112666)
(0.115069 0.00231746 -0.010877)
(0.107261 0.00607175 -0.00724147)
(0.105959 0.00491687 -0.000215493)
(0.10703 -0.000673474 0.00527029)
(0.108906 -0.00727606 0.00772017)
(0.112354 -0.0116369 0.00869378)
(0.116748 -0.0128914 0.00890432)
(0.120978 -0.0119656 0.00835121)
(0.124966 -0.0101565 0.00741325)
(0.12939 -0.00840661 0.00673234)
(0.134696 -0.00707948 0.00672371)
(0.140441 -0.00595502 0.00736873)
(0.145071 -0.0046291 0.00823575)
(0.146475 -0.00303375 0.00865189)
(0.143646 -0.00145669 0.00800267)
(0.137956 -0.000268018 0.00605388)
(0.132193 0.000294789 0.00315867)
(0.128141 0.000183632 -0.000244997)
(0.125511 -0.000585934 -0.00416651)
(0.130809 -0.000214896 -0.00559767)
(0.127297 -0.00137273 -0.00889533)
(0.122629 -0.00193001 -0.00866386)
(0.118787 -0.00204004 -0.00569642)
(0.117243 -0.00251052 -0.0025325)
(0.118053 -0.00317845 -0.000647643)
(0.120388 -0.0033746 -0.000167808)
(0.123472 -0.00324472 -0.00083059)
(0.126385 -0.00328398 -0.0026125)
(0.126908 -0.00328925 -0.00492115)
(0.121737 -0.0028353 -0.00580357)
(0.110531 -0.00161142 -0.0038442)
(0.0999376 0.000974117 -0.000865382)
(0.0973207 0.00415149 -5.5238e-05)
(0.102981 0.00531867 -0.00257738)
(0.113005 0.00294731 -0.00715516)
(0.12292 -0.00191741 -0.0114518)
(0.129826 -0.00689129 -0.0140684)
(0.1333 -0.00967849 -0.0147299)
(0.134347 -0.00879586 -0.0137146)
(0.131739 -0.00422102 -0.0122075)
(0.12337 0.00200091 -0.011118)
(0.113702 0.00615214 -0.00875991)
(0.107889 0.00504544 -0.00460559)
(0.105862 -0.000851317 -0.000964408)
(0.107128 -0.00764823 0.00170285)
(0.110934 -0.0118375 0.00389185)
(0.115502 -0.0127571 0.00510459)
(0.119615 -0.0116402 0.00500623)
(0.123444 -0.00989325 0.0042474)
(0.127845 -0.00839328 0.00386475)
(0.13329 -0.00740157 0.00448184)
(0.139332 -0.006648 0.00602326)
(0.144767 -0.0056095 0.00787268)
(0.148103 -0.00401994 0.00917525)
(0.148247 -0.00211044 0.00924411)
(0.145321 -0.000416117 0.00789935)
(0.140713 0.000601204 0.00556948)
(0.136257 0.000908043 0.00270948)
(0.133148 0.000659109 -0.00102158)
(0.136008 0.00141948 -0.0034121)
(0.133107 0.000776223 -0.0076256)
(0.128649 -5.87731e-05 -0.00846458)
(0.125126 -0.00101549 -0.00581366)
(0.123988 -0.00230265 -0.00211146)
(0.124464 -0.00349757 0.000408778)
(0.125609 -0.00395061 0.000869239)
(0.12741 -0.00388144 -0.000474283)
(0.129936 -0.00395539 -0.00283175)
(0.132084 -0.00397797 -0.00512368)
(0.130714 -0.003182 -0.00589048)
(0.122463 -0.00125457 -0.00408474)
(0.110415 0.00159204 -0.0014393)
(0.104031 0.00438972 -0.00141409)
(0.107275 0.00497829 -0.0047222)
(0.115799 0.00210261 -0.00914883)
(0.124397 -0.00304314 -0.0126342)
(0.130399 -0.00805278 -0.0143542)
(0.133176 -0.0108733 -0.0144495)
(0.133847 -0.0101706 -0.0135583)
(0.13312 -0.0055566 -0.0123456)
(0.128623 0.00116188 -0.0113883)
(0.120109 0.00584174 -0.0103663)
(0.111936 0.00488729 -0.00875316)
(0.107738 -0.00100762 -0.00647096)
(0.108208 -0.00748285 -0.00332818)
(0.111509 -0.0111208 -0.000112479)
(0.115362 -0.0116123 0.00177226)
(0.118758 -0.0103756 0.00186182)
(0.122054 -0.00878965 0.00107545)
(0.126202 -0.00760761 0.000823556)
(0.131731 -0.00697728 0.00198196)
(0.13806 -0.00657603 0.00443314)
(0.14377 -0.00587286 0.00730164)
(0.147398 -0.00455392 0.0094975)
(0.148221 -0.00276837 0.0102291)
(0.146639 -0.000965262 0.00934835)
(0.143696 0.000402747 0.00734531)
(0.140412 0.00118747 0.00477278)
(0.1378 0.00153474 0.00131561)
(0.138884 0.00239655 -0.0015907)
(0.13742 0.00259187 -0.0060639)
(0.134599 0.00183604 -0.00748924)
(0.132342 0.000185961 -0.00519292)
(0.131543 -0.00182959 -0.00139993)
(0.131142 -0.00342892 0.00145993)
(0.130582 -0.00407944 0.00223319)
(0.130471 -0.00408815 0.000882523)
(0.131429 -0.00413209 -0.00183722)
(0.133162 -0.00417849 -0.00450987)
(0.13381 -0.00333996 -0.00550188)
(0.129654 -0.00104741 -0.00387502)
(0.119845 0.00214217 -0.00107576)
(0.111193 0.00469394 -0.000476819)
(0.11037 0.0047714 -0.00328756)
(0.11605 0.00167254 -0.00763062)
(0.123377 -0.00333091 -0.0109614)
(0.128957 -0.00812823 -0.0118949)
(0.131685 -0.0110245 -0.0111466)
(0.132264 -0.010903 -0.0105055)
(0.132053 -0.00699901 -0.0105946)
(0.130238 -0.000389153 -0.0109691)
(0.124645 0.00479425 -0.0113919)
(0.11728 0.00446476 -0.0113654)
(0.112717 -0.000786561 -0.00979117)
(0.112197 -0.00655331 -0.00639219)
(0.113824 -0.00953788 -0.00274547)
(0.115987 -0.00968702 -0.000722647)
(0.118198 -0.00846559 -0.000786603)
(0.120776 -0.00714352 -0.00184993)
(0.124481 -0.00637082 -0.0022939)
(0.129863 -0.00619976 -0.00101553)
(0.136486 -0.00619106 0.00204118)
(0.142757 -0.0057665 0.00589283)
(0.146841 -0.00463525 0.00912544)
(0.147804 -0.00299286 0.0106628)
(0.146239 -0.00133638 0.0103111)
(0.143679 -3.20806e-05 0.00863332)
(0.14131 0.000891898 0.00625021)
(0.139695 0.00168308 0.00298808)
(0.140723 0.00243223 0.000228424)
(0.140738 0.00356111 -0.00410495)
(0.140223 0.00333318 -0.00594065)
(0.139488 0.00151772 -0.00442395)
(0.138609 -0.000898078 -0.00143756)
(0.136983 -0.00281996 0.000973074)
(0.134722 -0.00378268 0.00198755)
(0.132873 -0.00398485 0.00138574)
(0.13247 -0.00397167 -0.000733734)
(0.133527 -0.00389015 -0.00338246)
(0.134716 -0.00302748 -0.00471205)
(0.133091 -0.000666064 -0.00327494)
(0.126387 0.00270597 -7.2322e-05)
(0.117899 0.00535886 0.00152601)
(0.114113 0.0054999 -0.000477175)
(0.116679 0.0026748 -0.00454918)
(0.12202 -0.00191564 -0.00727482)
(0.126774 -0.00649254 -0.00681593)
(0.129847 -0.00969467 -0.00486246)
(0.131276 -0.0105402 -0.00456855)
(0.131431 -0.00796054 -0.00672942)
(0.130446 -0.00218571 -0.0095026)
(0.12745 0.00316009 -0.0115262)
(0.123032 0.00373215 -0.0122318)
(0.119571 -0.000366192 -0.0107492)
(0.117512 -0.00506045 -0.0073569)
(0.116427 -0.00736254 -0.004)
(0.116503 -0.0073146 -0.00245818)
(0.117736 -0.00623621 -0.0029995)
(0.119936 -0.00525504 -0.00450134)
(0.12324 -0.00494916 -0.00541317)
(0.128081 -0.00529764 -0.00455235)
(0.134539 -0.00575262 -0.00149767)
(0.141428 -0.00560866 0.00309814)
(0.146578 -0.00458286 0.00761266)
(0.148497 -0.00296034 0.0103848)
(0.147489 -0.00138975 0.010828)
(0.145106 -0.000321652 0.00955789)
(0.142751 0.000337367 0.00741985)
(0.141173 0.00113877 0.00444124)
(0.142928 0.00189329 0.00239307)
(0.143301 0.00350196 -0.00157586)
(0.144244 0.00390059 -0.00390857)
(0.144666 0.00254379 -0.00375893)
(0.143757 0.000342979 -0.00226226)
(0.141389 -0.00157432 -0.000647078)
(0.138195 -0.00277926 0.000667263)
(0.13541 -0.00331727 0.00126784)
(0.134272 -0.0035964 0.000486448)
(0.135019 -0.00376287 -0.00165506)
(0.136536 -0.00311274 -0.00367824)
(0.136365 -0.000698787 -0.00337622)
(0.131808 0.00307103 -0.000347351)
(0.123984 0.00628175 0.00231087)
(0.118185 0.00695409 0.00157639)
(0.117603 0.0046648 -0.00136295)
(0.120663 0.000646382 -0.00253933)
(0.124929 -0.00362062 -0.00036227)
(0.129104 -0.00716624 0.00252751)
(0.132127 -0.00891598 0.00242156)
(0.133104 -0.0077331 -0.00166664)
(0.132145 -0.0035327 -0.00711943)
(0.130246 0.0010368 -0.0109296)
(0.127871 0.00231324 -0.0120443)
(0.124526 -4.38511e-05 -0.0105764)
(0.120295 -0.00312478 -0.00763233)
(0.117171 -0.00470655 -0.00498656)
(0.116541 -0.00471395 -0.00395302)
(0.117998 -0.00401672 -0.00465355)
(0.120488 -0.00350275 -0.00625087)
(0.123472 -0.00368466 -0.00762194)
(0.127282 -0.004509 -0.00770479)
(0.132665 -0.00535756 -0.0055782)
(0.139492 -0.00545345 -0.00102655)
(0.145816 -0.00447312 0.00467661)
(0.149322 -0.00281929 0.00925515)
(0.149537 -0.00126612 0.0111769)
(0.14783 -0.000352868 0.0106495)
(0.145665 1.93163e-05 0.00876808)
(0.14382 0.000559284 0.00606834)
(0.145872 0.00134207 0.00482815)
(0.145797 0.00284631 0.00153866)
(0.146374 0.00350229 -0.00100505)
(0.146504 0.00271495 -0.00214454)
(0.145373 0.0011627 -0.00213312)
(0.143142 -0.000302025 -0.00138312)
(0.140436 -0.00137841 -6.93083e-05)
(0.138012 -0.00210776 0.00139577)
(0.136726 -0.00277242 0.00206614)
(0.136995 -0.00350782 0.00108399)
(0.138103 -0.00356222 -0.00106418)
(0.138254 -0.00154266 -0.00226512)
(0.135062 0.00270122 -0.000883712)
(0.128184 0.00700383 0.0015447)
(0.121379 0.00879988 0.00220654)
(0.118657 0.00739518 0.00156778)
(0.120543 0.00372557 0.00237487)
(0.125263 -0.000957662 0.0049988)
(0.130501 -0.00512724 0.00727857)
(0.134485 -0.00714922 0.00681631)
(0.136248 -0.00627078 0.0023557)
(0.135233 -0.00299276 -0.00453762)
(0.132023 0.000601967 -0.0102246)
(0.127692 0.00210063 -0.0124787)
(0.122838 0.00117626 -0.0115044)
(0.11895 -0.000616223 -0.0087817)
(0.117504 -0.00192235 -0.00603663)
(0.118451 -0.00242661 -0.00446698)
(0.120624 -0.00247033 -0.00446453)
(0.12291 -0.00261781 -0.00573543)
(0.124949 -0.00323088 -0.0076153)
(0.127302 -0.00425251 -0.00911385)
(0.131096 -0.00519935 -0.00882513)
(0.137013 -0.00536458 -0.00552674)
(0.143939 -0.00432595 0.000432817)
(0.149119 -0.00250063 0.00674319)
(0.150837 -0.00082453 0.0108261)
(0.149951 1.44746e-05 0.0117747)
(0.148293 0.000121431 0.0104245)
(0.146825 0.000312944 0.00792927)
(0.149791 0.000981794 0.00665944)
(0.149226 0.00228526 0.00421659)
(0.148665 0.00313792 0.00252818)
(0.147525 0.00276604 0.00165523)
(0.145569 0.00147234 0.00124578)
(0.143379 3.73719e-06 0.0010233)
(0.141646 -0.00105294 0.0011733)
(0.140549 -0.00159096 0.0019477)
(0.139955 -0.00194319 0.00287344)
(0.139751 -0.00253058 0.00281638)
(0.139605 -0.00295947 0.00122207)
(0.13863 -0.00167008 -0.000639407)
(0.135511 0.00236203 -0.000816356)
(0.129733 0.00742822 0.000765218)
(0.123648 0.010251 0.00245347)
(0.121023 0.00914064 0.00365825)
(0.123111 0.00480664 0.00484885)
(0.127948 -0.000660852 0.00598912)
(0.132715 -0.0048941 0.00670665)
(0.13604 -0.00636455 0.00622783)
(0.138075 -0.00482523 0.00317335)
(0.138563 -0.00134853 -0.00263435)
(0.136576 0.00207685 -0.00866748)
(0.132556 0.00367921 -0.0119011)
(0.128403 0.00313859 -0.0114174)
(0.125882 0.00139742 -0.00849906)
(0.125306 -0.000475877 -0.00518869)
(0.125667 -0.00181017 -0.00302611)
(0.125978 -0.00258522 -0.00260307)
(0.125963 -0.00323161 -0.00382882)
(0.125966 -0.00405049 -0.00621217)
(0.1268 -0.00497338 -0.00888743)
(0.129375 -0.00567513 -0.0104107)
(0.134256 -0.0056831 -0.00903645)
(0.141013 -0.00455458 -0.00408751)
(0.147573 -0.00246521 0.00284784)
(0.151467 -0.000410619 0.00886406)
(0.152276 0.000626224 0.0118493)
(0.151517 0.000577321 0.0116378)
(0.150561 0.000366253 0.00943816)
(0.154262 0.00102151 0.00714005)
(0.153585 0.00191455 0.00517581)
(0.152424 0.00266791 0.00439407)
(0.150343 0.00239487 0.00438237)
(0.147365 0.00112146 0.00431097)
(0.144372 -0.000421248 0.00365665)
(0.142425 -0.00142275 0.00270404)
(0.141823 -0.00158479 0.00220072)
(0.141994 -0.0012583 0.00240343)
(0.142079 -0.0011045 0.00255256)
(0.141319 -0.00117755 0.00164827)
(0.139096 -0.000256519 1.20292e-05)
(0.135142 0.00300515 -0.000699249)
(0.129957 0.00766875 0.000403387)
(0.125487 0.0104375 0.00236154)
(0.124268 0.00904208 0.00375242)
(0.126789 0.00436402 0.00406933)
(0.131118 -0.000889891 0.00396788)
(0.134961 -0.00438273 0.00414127)
(0.137234 -0.00508997 0.00404967)
(0.13841 -0.00315017 0.00219515)
(0.139413 0.000364225 -0.00201639)
(0.140219 0.00365882 -0.00691183)
(0.140612 0.00508321 -0.009885)
(0.141164 0.00416395 -0.00968086)
(0.141933 0.00173941 -0.00720099)
(0.141643 -0.000786688 -0.00433579)
(0.139187 -0.00244163 -0.00244632)
(0.135098 -0.00323852 -0.00197317)
(0.13103 -0.00392639 -0.00287173)
(0.128349 -0.00506793 -0.00493503)
(0.127593 -0.00637633 -0.00775009)
(0.128868 -0.00710062 -0.0103198)
(0.132282 -0.0068423 -0.010848)
(0.137765 -0.00553756 -0.00776335)
(0.144355 -0.00326655 -0.0015428)
(0.150061 -0.000717077 0.00522094)
(0.153401 0.000940947 0.00983324)
(0.1546 0.00122625 0.0111048)
(0.154664 0.000872911 0.00965067)
(0.157288 0.000997208 0.00668793)
(0.156525 0.0012675 0.00528997)
(0.15492 0.00141564 0.00479068)
(0.151932 0.000949528 0.00494671)
(0.147531 -0.000132953 0.0049603)
(0.143185 -0.0013765 0.00427431)
(0.140846 -0.00208339 0.00298951)
(0.140931 -0.0017377 0.00178624)
(0.14221 -0.00059811 0.00128935)
(0.143089 0.000526191 0.00129928)
(0.142372 0.00125792 0.000916116)
(0.139433 0.0023089 -0.000142435)
(0.134632 0.00467626 -0.000828932)
(0.129557 0.00774118 -0.000176136)
(0.126332 0.00907742 0.00113382)
(0.126342 0.0071363 0.00171962)
(0.129318 0.00300545 0.0014549)
(0.133632 -0.000943519 0.00155378)
(0.137364 -0.00306872 0.00260677)
(0.139436 -0.00287051 0.00363177)
(0.140221 -0.000688029 0.00299079)
(0.141087 0.00242714 -5.66551e-06)
(0.143146 0.0049596 -0.00399309)
(0.146519 0.00561121 -0.00670868)
(0.15031 0.00421566 -0.00693876)
(0.152576 0.00193491 -0.00532553)
(0.151302 0.000275684 -0.00338931)
(0.146499 -0.000380695 -0.00220002)
(0.140684 -0.000999969 -0.00186317)
(0.136728 -0.0026171 -0.0021256)
(0.135192 -0.00520929 -0.00313582)
(0.134561 -0.00772885 -0.00531922)
(0.133845 -0.00891639 -0.00841021)
(0.133867 -0.00839426 -0.0107956)
(0.135971 -0.00676215 -0.010242)
(0.140474 -0.00458695 -0.00595874)
(0.146306 -0.0021593 0.000270605)
(0.151699 -0.000129538 0.00559183)
(0.155389 0.000863236 0.0082275)
(0.157113 0.000986618 0.00817154)
(0.155809 0.00163202 0.0049691)
(0.15534 0.00185364 0.00551398)
(0.152415 0.00188721 0.00646544)
(0.14743 0.00157044 0.00739757)
(0.142122 0.000529929 0.00773502)
(0.138862 -0.00132085 0.00705429)
(0.138635 -0.00299159 0.00522217)
(0.140609 -0.00309031 0.00272239)
(0.143158 -0.0013328 0.000620286)
(0.144655 0.00111534 -0.000272074)
(0.143918 0.00304396 -0.000243817)
(0.140608 0.00438168 -0.000288336)
(0.13557 0.00580207 -0.000750972)
(0.130764 0.00718507 -0.00121363)
(0.128251 0.00739818 -0.00162113)
(0.128871 0.00584344 -0.00209379)
(0.131957 0.00320443 -0.00201873)
(0.136055 0.000639953 -0.000674864)
(0.139619 -0.000918557 0.00162693)
(0.1416 -0.000907033 0.00375805)
(0.142116 0.000663627 0.00457464)
(0.14249 0.00299187 0.00355916)
(0.144001 0.00476333 0.00133329)
(0.146286 0.004948 -0.00076105)
(0.147488 0.00375952 -0.00187881)
(0.146008 0.00236498 -0.00228444)
(0.142351 0.00150566 -0.00244774)
(0.139045 0.000784409 -0.00222923)
(0.138558 -0.000659043 -0.00111999)
(0.141036 -0.00303594 0.00051674)
(0.14428 -0.00579783 0.00111535)
(0.145675 -0.00811967 -0.000714304)
(0.143964 -0.00916127 -0.00473956)
(0.140346 -0.00853623 -0.00906358)
(0.137684 -0.00676954 -0.0111842)
(0.13795 -0.0047437 -0.00960617)
(0.141082 -0.002824 -0.00513309)
(0.145785 -0.00105053 -0.000217728)
(0.150511 0.000341425 0.00311119)
(0.154066 0.00119184 0.00452204)
(0.151514 0.00139103 0.00230759)
(0.152634 0.00255611 0.0046215)
(0.151198 0.00332871 0.00724936)
(0.147704 0.0029601 0.00944205)
(0.144252 0.00102413 0.0103604)
(0.142578 -0.00204388 0.00958633)
(0.142547 -0.00482604 0.0072816)
(0.143198 -0.00555855 0.00400466)
(0.14397 -0.00343994 0.000753834)
(0.144331 0.000526764 -0.00113087)
(0.143351 0.00440438 -0.00100198)
(0.140395 0.00694238 0.00027085)
(0.136081 0.00810157 0.00113251)
(0.132242 0.0083023 0.00088578)
(0.130602 0.00781866 -3.04184e-05)
(0.131573 0.00675045 -0.00078634)
(0.134393 0.00521961 -0.000738938)
(0.137917 0.00345617 0.000185226)
(0.141018 0.00191875 0.00162036)
(0.142937 0.00124071 0.00312774)
(0.143554 0.00181583 0.00433947)
(0.143347 0.00327031 0.00490832)
(0.142895 0.00457719 0.00465602)
(0.142174 0.00492397 0.00381892)
(0.140726 0.00434391 0.00296587)
(0.138759 0.00344836 0.00270318)
(0.137563 0.00261272 0.00348786)
(0.138378 0.00165743 0.0053919)
(0.141191 0.000207926 0.00781842)
(0.144966 -0.00189481 0.00942904)
(0.148612 -0.00435825 0.00879487)
(0.151109 -0.00641159 0.00522906)
(0.151121 -0.00726121 -0.000576118)
(0.147998 -0.00663108 -0.00670498)
(0.14346 -0.00509251 -0.0109599)
(0.140414 -0.00350699 -0.0118377)
(0.140222 -0.0022828 -0.00949705)
(0.142287 -0.00132744 -0.00566732)
(0.145432 -0.000492595 -0.00218373)
(0.148767 0.000355734 0.000292205)
(0.149016 -0.000350933 0.00122514)
(0.149502 0.000998374 0.00352378)
(0.14966 0.00263357 0.00593477)
(0.149432 0.00307709 0.00788348)
(0.149054 0.00134162 0.00869252)
(0.148617 -0.00206174 0.00823132)
(0.147918 -0.00532563 0.00677264)
(0.146682 -0.00643888 0.00456831)
(0.145079 -0.00435345 0.00194374)
(0.143572 0.000330799 -0.000245919)
(0.142177 0.00557893 -0.000786482)
(0.140527 0.00930823 0.000687286)
(0.138671 0.0108032 0.00318277)
(0.13718 0.0106681 0.0054224)
(0.136627 0.0098029 0.00680329)
(0.137205 0.00864132 0.00734619)
(0.138794 0.00717617 0.00732823)
(0.141118 0.00527321 0.00705027)
(0.143775 0.00312279 0.00672313)
(0.146223 0.00138443 0.00645544)
(0.147883 0.000820389 0.00632719)
(0.148402 0.00164598 0.00637232)
(0.147821 0.00322324 0.00646933)
(0.146442 0.00452861 0.00643438)
(0.144698 0.00493491 0.00631719)
(0.143135 0.00450375 0.00640383)
(0.142292 0.00359011 0.00697822)
(0.142425 0.00234813 0.0080783)
(0.143437 0.000645109 0.00925276)
(0.14516 -0.00157351 0.00975572)
(0.147481 -0.00401536 0.00885244)
(0.150114 -0.00589777 0.00606921)
(0.152191 -0.00622787 0.00147089)
(0.152408 -0.00472883 -0.00408379)
(0.150504 -0.00255142 -0.00895755)
(0.14796 -0.00104659 -0.0113654)
(0.14652 -0.00049182 -0.0106024)
(0.146582 -0.000438352 -0.00760525)
(0.147435 -0.000585686 -0.00406839)
(0.148333 -0.000744258 -0.00111669)
(0.150159 -0.00198103 -9.30222e-05)
(0.148629 -0.0015281 0.00172326)
(0.147417 -0.000450013 0.00312632)
(0.147227 -0.000117255 0.0041432)
(0.147974 -0.00137788 0.00469251)
(0.149004 -0.00380179 0.00477253)
(0.149473 -0.00603935 0.00439777)
(0.148825 -0.00657178 0.00346892)
(0.147183 -0.00441782 0.00203445)