/*--------------------------------*- C++ -*----------------------------------*\
| =========                 |                                                 |
| \\      /  F ield         | OpenFOAM: The Open Source CFD Toolbox           |
|  \\    /   O peration     | Version:  5.0                                   |
|   \\  /    A nd           | Web:      www.OpenFOAM.org                      |
|    \\/     M anipulation  |                                                 |
\*---------------------------------------------------------------------------*/
FoamFile
{
    version     2.0;
    format      ascii;
    class       volVectorField;
    location    "50.4676134421789371";
    object      UPrime;
}
// * * * * * * * * * * * * * * * * * * * * * * * * * * * * * * * * * * * * * //

dimensions      [0 1 -1 0 0 0 0];

internalField   nonuniform List<vector> 
60000
(
(-7.05823e-05 -1.68751e-05 -0.000421202)
(0.000208483 -2.18868e-05 -0.00037421)
(0.000430273 -1.89582e-05 -0.000251787)
(0.000459822 -7.6337e-06 -5.22531e-05)
(0.00026853 1.31169e-06 0.000158031)
(2.44121e-05 9.85938e-07 0.000288752)
(-0.000113253 2.34796e-06 0.000313224)
(-0.000223944 1.86424e-06 0.000216828)
(-0.000376977 -1.46929e-07 2.30242e-05)
(-0.000455455 1.60958e-06 -0.00018716)
(-0.000384765 -4.92704e-06 -0.00029696)
(-0.000220548 -9.96168e-06 -0.00027491)
(-0.00011452 -7.83811e-06 -0.000181421)
(-0.000137989 -7.37939e-06 -8.10211e-05)
(-0.000195835 -1.22538e-05 3.51765e-05)
(-0.000175382 -1.63962e-05 0.000198751)
(-0.000123655 -3.09971e-06 0.000371462)
(-0.000186596 1.17718e-05 0.00049763)
(-0.000408411 2.32978e-05 0.000625976)
(-0.000768295 2.32352e-05 0.000646301)
(-0.00120963 2.10625e-05 0.000440931)
(-0.00159875 8.17423e-06 8.37515e-05)
(-0.00174749 -6.58265e-06 -0.000255369)
(-0.00179501 -5.14941e-06 -0.000457329)
(-0.00198074 1.35854e-05 -0.000473266)
(-0.00221765 2.69884e-05 -0.000406678)
(-0.00224696 2.22285e-05 -0.000378224)
(-0.00186797 7.63139e-06 -0.00041252)
(-0.00119488 -4.64629e-06 -0.000386863)
(-0.000668133 -1.08095e-05 -0.000171789)
(-0.000623566 -1.35996e-05 0.000174017)
(-0.000847731 -1.92821e-05 0.000451627)
(-0.00098921 -2.2634e-05 0.000600813)
(-0.000834193 -1.87279e-05 0.00070381)
(-0.000346236 -9.44008e-06 0.0007802)
(0.000105572 9.58885e-07 0.00065656)
(2.17652e-05 -4.37225e-06 0.000238822)
(-0.000309556 -1.01821e-05 -0.000184232)
(-0.000413122 -1.07576e-05 -0.000382811)
(-0.000298425 -1.29279e-05 -0.00042877)
(-0.00072165 -0.000102524 -0.000814745)
(-9.23132e-05 -9.66868e-05 -0.000525187)
(0.000422816 -4.4529e-05 -0.000183173)
(0.000648501 2.01778e-05 0.000129265)
(0.000502323 5.09231e-05 0.000465421)
(9.52214e-05 1.80582e-05 0.000710058)
(-0.000242793 -3.51044e-06 0.000613975)
(-0.000499981 -9.458e-06 0.000188633)
(-0.000914091 9.73476e-07 -0.000413009)
(-0.0012942 -2.34558e-05 -0.00087202)
(-0.0013424 -6.31458e-05 -0.00098409)
(-0.00101463 -7.5325e-05 -0.00077172)
(-0.000572517 -3.46284e-05 -0.000370207)
(-0.000374731 1.32726e-05 4.81579e-05)
(-0.000508267 2.4055e-05 0.000420857)
(-0.00075805 3.05724e-05 0.000758477)
(-0.000950899 5.96721e-05 0.000970935)
(-0.00114798 8.00212e-05 0.00103271)
(-0.0013591 4.10193e-05 0.00108686)
(-0.00161137 -3.62492e-05 0.000956511)
(-0.00200703 -7.79112e-05 0.000353066)
(-0.00263656 -6.96715e-05 -0.000585802)
(-0.00321244 -2.43614e-05 -0.00125165)
(-0.00374671 8.02247e-05 -0.00131684)
(-0.00443375 0.000194083 -0.000983658)
(-0.00509756 0.000248635 -0.00058389)
(-0.00533315 0.0001933 -0.000351403)
(-0.00480099 7.46931e-05 -0.000336297)
(-0.00352336 -2.37764e-05 -0.000370217)
(-0.00211844 -4.62963e-05 -0.000190852)
(-0.00150743 -1.62861e-05 0.000278846)
(-0.00181486 -5.91832e-06 0.000779314)
(-0.00234683 -3.63421e-05 0.00105826)
(-0.0024697 -6.5487e-05 0.00116756)
(-0.00178799 -7.41336e-05 0.00120349)
(-0.00052825 -2.55097e-05 0.00100232)
(0.000113334 2.93389e-05 0.00034848)
(-0.000432847 1.45873e-05 -0.000471678)
(-0.00108045 -3.60107e-05 -0.000936757)
(-0.0011368 -8.17713e-05 -0.000981401)
(-0.00129194 -0.000155071 -0.000915036)
(-0.000727919 -0.000175873 -0.000590857)
(-0.000216387 -8.79304e-05 -0.000148891)
(0.000116484 3.16824e-05 0.000168615)
(0.000340522 0.000102066 0.000390206)
(0.000298435 6.51305e-05 0.000698565)
(-1.31897e-05 1.21019e-05 0.000761533)
(-0.000345899 -2.3365e-05 0.000338407)
(-0.000783139 1.29156e-05 -0.00040557)
(-0.00133279 -1.97508e-05 -0.00106121)
(-0.00158691 -8.60547e-05 -0.00124189)
(-0.00136387 -0.000139228 -0.0010091)
(-0.00083344 -0.000101617 -0.00053895)
(-0.000420697 -3.25752e-06 -1.26171e-05)
(-0.000478939 6.62978e-05 0.000433815)
(-0.00088128 0.000125304 0.000776705)
(-0.0011919 0.000190947 0.000972536)
(-0.00120751 0.000216583 0.000992009)
(-0.00104472 8.59578e-05 0.0010001)
(-0.000972588 -0.000154984 0.000827703)
(-0.00113888 -0.000309165 0.000127091)
(-0.00176286 -0.000261797 -0.00111436)
(-0.00253585 -7.51421e-05 -0.00202849)
(-0.00311025 0.00019505 -0.00192665)
(-0.0036249 0.000409556 -0.00124105)
(-0.00405257 0.000485121 -0.00050698)
(-0.00416614 0.000363505 -3.5857e-05)
(-0.00376335 0.000138789 0.00010524)
(-0.00283814 -5.33911e-05 4.96589e-05)
(-0.00171793 -0.000116271 2.36288e-05)
(-0.000996098 -5.5858e-05 0.000193612)
(-0.0010281 2.01451e-05 0.000517614)
(-0.00152505 1.03632e-05 0.000804201)
(-0.00195265 -5.01351e-05 0.000944021)
(-0.00180984 -0.000107112 0.000976298)
(-0.000972891 -8.53384e-05 0.000853292)
(-5.09797e-05 2.30499e-05 0.000464365)
(-8.38635e-05 8.95633e-05 -0.000167069)
(-0.0009452 4.6389e-05 -0.000746768)
(-0.0014621 -5.96538e-05 -0.00100267)
(-0.000979075 -0.000200356 -0.00106442)
(-0.000504747 -0.000268805 -0.000779663)
(-6.87167e-07 -0.00014291 -0.000243099)
(0.000269792 3.98287e-05 0.000186291)
(0.000509629 0.000140299 0.000358613)
(0.00071323 0.000117392 0.000581278)
(0.000614523 4.80483e-05 0.000826028)
(0.000249658 -2.8764e-05 0.000587459)
(-0.000185212 5.2544e-06 -0.000162353)
(-0.000775825 4.06408e-06 -0.00103238)
(-0.00118537 -9.36228e-05 -0.00140848)
(-0.000995168 -0.000202588 -0.00119021)
(-0.000354535 -0.000183145 -0.000649429)
(0.00021099 -3.73874e-05 -2.23974e-05)
(0.0001666 0.000105958 0.000506342)
(-0.000432398 0.000209435 0.000860654)
(-0.000895376 0.000294903 0.00102519)
(-0.000686641 0.000305799 0.00100745)
(-4.96843e-05 0.000111412 0.00100111)
(0.000365261 -0.00028156 0.000844632)
(0.000203728 -0.000566415 9.98973e-05)
(-0.000565046 -0.000479551 -0.00136123)
(-0.00156006 -0.000117188 -0.00256645)
(-0.00208646 0.000335692 -0.00239638)
(-0.00228774 0.0006227 -0.00141738)
(-0.00233577 0.000659052 -0.000392812)
(-0.0021955 0.000422349 0.000269975)
(-0.00178066 7.61114e-05 0.000499528)
(-0.00103239 -0.000190029 0.000445036)
(-9.37575e-05 -0.000261708 0.000316525)
(0.000594738 -0.000159747 0.000298094)
(0.000678032 -1.57906e-05 0.000435755)
(0.000245839 3.11184e-05 0.000641338)
(-0.000267688 -3.30319e-05 0.000825835)
(-0.000478236 -0.000130115 0.000936356)
(-1.96617e-05 -0.000144296 0.000864077)
(0.000769625 -1.73114e-05 0.000550043)
(0.000919749 0.000139373 5.6675e-05)
(7.35472e-05 0.000149335 -0.000491565)
(-0.00086431 -1.26122e-06 -0.000933086)
(-0.000750708 -0.00020147 -0.00117216)
(-0.000441885 -0.000387718 -0.00117514)
(0.000186128 -0.000251356 -0.000592367)
(0.000584033 1.58958e-05 4.78447e-05)
(0.000834226 0.000163969 0.000329748)
(0.00111984 0.000147911 0.000489791)
(0.00120847 7.88472e-05 0.000807748)
(0.000947612 -8.56219e-06 0.000853177)
(0.00050774 6.09476e-07 0.000250451)
(-0.000111926 4.24973e-05 -0.000792536)
(-0.00082514 -8.53894e-05 -0.0015887)
(-0.000946881 -0.000291445 -0.00159301)
(-0.000282762 -0.000327011 -0.0010121)
(0.000520723 -0.000131626 -0.000202992)
(0.000604085 0.000126365 0.000540516)
(-0.000166711 0.000309189 0.00103469)
(-0.00087655 0.000407307 0.00120606)
(-0.000606248 0.000373913 0.00110653)
(0.000495032 0.000132984 0.00105011)
(0.00147631 -0.000378294 0.00101817)
(0.00136629 -0.000842811 0.000341342)
(0.000270759 -0.000769185 -0.00130548)
(-0.0011698 -0.000205869 -0.00291088)
(-0.00190403 0.000492154 -0.00288464)
(-0.00192997 0.00088231 -0.00173492)
(-0.00166034 0.000878647 -0.000462356)
(-0.00138752 0.000530958 0.000357531)
(-0.00111902 6.17212e-05 0.00064378)
(-0.000655373 -0.000313932 0.000618437)
(0.000179664 -0.000435628 0.000485418)
(0.00106602 -0.000305179 0.000381596)
(0.00148035 -9.88073e-05 0.000382828)
(0.00136041 1.40428e-05 0.000480747)
(0.000985496 -6.45216e-06 0.000669692)
(0.000622044 -0.000124939 0.0009447)
(0.000618755 -0.000199828 0.00108136)
(0.00122517 -7.87906e-05 0.000849258)
(0.0015954 0.000148663 0.000381602)
(0.00102282 0.000251527 -0.00012968)
(-0.000107293 0.000108711 -0.00069134)
(-0.000444685 -5.91541e-05 -0.00081717)
(-0.000660993 -0.000433163 -0.00129632)
(-0.000189556 -0.0003887 -0.00104358)
(0.000348669 -6.48061e-05 -0.000303021)
(0.000704344 0.000166609 0.000190421)
(0.00107417 0.000166753 0.000367537)
(0.00136367 9.60039e-05 0.000647524)
(0.00137907 2.80368e-05 0.000939389)
(0.00114953 1.26793e-05 0.000658919)
(0.000682636 6.87614e-05 -0.000273603)
(-0.000149329 -3.94619e-05 -0.0014066)
(-0.000831928 -0.000360808 -0.00187505)
(-0.000622056 -0.000520527 -0.0014856)
(0.000145992 -0.000339288 -0.000560366)
(0.000384761 7.04924e-05 0.000475711)
(-0.000421563 0.000422791 0.0012394)
(-0.00132494 0.000570504 0.00145434)
(-0.00107804 0.000473646 0.00114553)
(0.000322933 0.000173913 0.000856581)
(0.00205597 -0.000403267 0.000952643)
(0.00248268 -0.00105633 0.000608879)
(0.00110552 -0.0011016 -0.0010316)
(-0.000983853 -0.000343684 -0.0030073)
(-0.00209461 0.000607686 -0.00325354)
(-0.00186462 0.00116205 -0.00201829)
(-0.00125321 0.00114067 -0.000556118)
(-0.000988366 0.000698197 0.000321911)
(-0.000968423 0.000143324 0.000582042)
(-0.000944904 -0.000316872 0.000552815)
(-0.00066335 -0.000545411 0.000454601)
(2.87141e-05 -0.000475847 0.000361857)
(0.000794812 -0.000241781 0.000298705)
(0.00128792 -6.30198e-05 0.000283917)
(0.00152045 -1.95711e-05 0.000374531)
(0.00146991 -9.08874e-05 0.000657405)
(0.00115419 -0.000193651 0.00102677)
(0.00106038 -0.000139989 0.0010867)
(0.00136279 0.000111216 0.000760442)
(0.00128121 0.000323909 0.000336343)
(0.000503738 0.000286499 -0.000157185)
(0.000132386 0.000157687 -0.000223879)
(-0.000458691 -0.000305474 -0.000941267)
(-0.00042644 -0.000458014 -0.00118328)
(-0.000111714 -0.000172157 -0.00068476)
(0.000201039 0.00011875 -8.31383e-05)
(0.000570093 0.000158973 0.000193798)
(0.000999956 8.94817e-05 0.000419264)
(0.00130481 5.41592e-05 0.000799522)
(0.00150925 4.81394e-05 0.000860293)
(0.00152588 8.32752e-05 0.000196223)
(0.000984893 -5.1479e-06 -0.000940705)
(-2.38202e-06 -0.000382981 -0.00183464)
(-0.000496514 -0.000709835 -0.00174824)
(-0.000276282 -0.000606133 -0.000831917)
(-0.00027078 -6.59759e-05 0.000462656)
(-0.00111078 0.000514024 0.00152589)
(-0.00193351 0.000772238 0.00179813)
(-0.00157125 0.00060918 0.00118457)
(-0.000142527 0.000185945 0.000501548)
(0.00206793 -0.000447942 0.000521758)
(0.00344279 -0.00117964 0.000628811)
(0.00224219 -0.00135808 -0.00067817)
(-0.000411754 -0.000493357 -0.00281919)
(-0.00182836 0.00067422 -0.00331876)
(-0.00138676 0.00140616 -0.00203589)
(-0.000830619 0.00137564 -0.000558167)
(-0.000830482 0.000843966 0.000220295)
(-0.000948611 0.000218854 0.000444257)
(-0.00100311 -0.000262679 0.000454456)
(-0.00109086 -0.00051702 0.000382615)
(-0.00105187 -0.000541129 0.000271277)
(-0.000596492 -0.000406286 0.000166156)
(0.000229728 -0.000245973 0.000100224)
(0.00116505 -0.000154018 0.000124338)
(0.00186695 -0.000144057 0.000335687)
(0.00192752 -0.000172509 0.000733957)
(0.00143125 -0.000137389 0.0010431)
(0.00108486 4.66247e-05 0.000987367)
(0.00106348 0.0002904 0.000727817)
(0.000808482 0.000389999 0.00038844)
(0.000535515 0.000325041 0.000383139)
(0.000141573 -6.14998e-05 -0.000408015)
(-0.000108881 -0.000345016 -0.000938141)
(-0.000135709 -0.000178225 -0.000790394)
(-0.000197218 8.31983e-05 -0.000316948)
(-0.000162404 0.000120679 -1.56662e-05)
(0.000157113 3.20507e-05 0.000174851)
(0.000618496 2.4394e-05 0.000533647)
(0.00121315 5.87416e-05 0.000829473)
(0.0019449 7.44842e-05 0.000458004)
(0.00218261 -5.8464e-06 -0.000499803)
(0.00138648 -0.000397817 -0.00147349)
(0.000201623 -0.000892711 -0.00161225)
(-0.000429547 -0.000836811 -0.000764266)
(-0.00107018 -0.000182609 0.000646734)
(-0.00206002 0.000612673 0.00183402)
(-0.00244656 0.000977423 0.0019564)
(-0.00182169 0.000791332 0.0011419)
(-0.00059379 0.000215949 0.000195775)
(0.00147711 -0.00054564 -4.56826e-05)
(0.00368627 -0.00129181 0.00030347)
(0.00337295 -0.00151991 -0.000437296)
(0.000718519 -0.000645949 -0.0023999)
(-0.000884597 0.000711469 -0.00298869)
(-0.000748419 0.00163012 -0.00179168)
(-0.000656745 0.001593 -0.000548742)
(-0.000932054 0.000963352 3.40745e-05)
(-0.00107281 0.000258286 0.000262558)
(-0.00104792 -0.00022469 0.000368644)
(-0.00113411 -0.000428567 0.000346977)
(-0.00140691 -0.000435455 0.000199095)
(-0.00157236 -0.000391789 3.70975e-06)
(-0.00118336 -0.000378724 -0.000132979)
(-9.79526e-05 -0.000365778 -0.000126919)
(0.0012588 -0.000316332 6.80006e-05)
(0.00211319 -0.000243219 0.000431856)
(0.00200832 -0.00013394 0.000801741)
(0.00133425 1.37007e-05 0.000962455)
(0.000873691 0.000204858 0.000937997)
(0.000750389 0.000372171 0.000829648)
(0.000678523 0.00036199 0.000901513)
(0.000695418 0.000147107 0.000126918)
(0.000571663 -0.000138074 -0.000638177)
(0.000328607 -6.27475e-05 -0.000741028)
(-0.000107668 0.00016268 -0.000387972)
(-0.000567577 0.000166248 -9.21827e-05)
(-0.000708934 1.51252e-05 5.30483e-05)
(-0.000463755 -2.90801e-05 0.000293482)
(0.000206403 8.26207e-06 0.000627799)
(0.00146404 7.45122e-06 0.000517273)
(0.00279209 -6.34011e-05 -0.000256928)
(0.0028255 -0.000440513 -0.00105237)
(0.00126856 -0.00101335 -0.00112011)
(-0.000435795 -0.000953129 -0.000273177)
(-0.00179621 -0.000184186 0.00100913)
(-0.00270325 0.000741367 0.00185341)
(-0.0026012 0.00118851 0.00170051)
(-0.00171058 0.0010019 0.000927237)
(-0.000745741 0.00028675 6.46366e-05)
(0.000620154 -0.000674047 -0.000390884)
(0.00294328 -0.00146825 -0.000149465)
(0.00388917 -0.00164544 -0.000395334)
(0.00208321 -0.000738005 -0.00180474)
(0.000361329 0.000768107 -0.00232046)
(-0.000135945 0.00184843 -0.0014089)
(-0.000596429 0.00176474 -0.000601936)
(-0.00108297 0.00100373 -0.000221526)
(-0.00120422 0.000228972 7.63933e-05)
(-0.00112598 -0.000225706 0.000302267)
(-0.0011933 -0.000357756 0.000311157)
(-0.00149901 -0.000297889 0.000108399)
(-0.00184943 -0.000232577 -0.000176926)
(-0.00189952 -0.000297508 -0.000390811)
(-0.00129177 -0.000445152 -0.000402667)
(-8.64187e-06 -0.000510514 -0.000178128)
(0.00135444 -0.000422587 0.000209521)
(0.00200222 -0.000229783 0.000589307)
(0.00175199 -3.45551e-05 0.00080695)
(0.00112451 0.000119022 0.000951588)
(0.000713259 0.000270896 0.00109715)
(0.000730741 0.000279402 0.00125567)
(0.00104121 0.000237147 0.000596437)
(0.00107819 6.05654e-05 -0.000370821)
(0.000627748 0.000125073 -0.000770092)
(-1.88432e-05 0.00032383 -0.000538827)
(-0.000517942 0.000290542 -0.000126018)
(-0.000784516 7.10895e-05 0.000173183)
(-0.000893073 -3.92636e-05 0.000349882)
(-0.000684695 -2.30911e-05 0.000515261)
(0.000327876 -7.46887e-05 0.00044708)
(0.00224741 -0.00021456 -0.000182578)
(0.0035973 -0.000530641 -0.000863233)
(0.00247616 -0.000991466 -0.000649112)
(-0.000106267 -0.000920926 0.00034078)
(-0.00209454 -6.88943e-05 0.00130222)
(-0.0028102 0.000913967 0.00160489)
(-0.00236888 0.00138716 0.00123893)
(-0.00141617 0.00116612 0.000645975)
(-0.000608479 0.000368604 5.62412e-05)
(1.84342e-05 -0.000753248 -0.000396201)
(0.00159798 -0.0016858 -0.000400871)
(0.00336148 -0.00182119 -0.000411002)
(0.0030275 -0.000791395 -0.0010964)
(0.00166615 0.000883421 -0.00142513)
(0.000499615 0.00199426 -0.0010585)
(-0.000555346 0.00180692 -0.000775999)
(-0.00117462 0.000927912 -0.000511178)
(-0.00125206 0.000139094 -8.32383e-05)
(-0.00114745 -0.000247966 0.000267106)
(-0.00124047 -0.00029804 0.000280619)
(-0.00158808 -0.000183134 -2.29095e-05)
(-0.001963 -8.57305e-05 -0.000427912)
(-0.00206186 -0.000139115 -0.000702723)
(-0.0016905 -0.00034218 -0.00070019)
(-0.000806037 -0.000531572 -0.000406855)
(0.000351539 -0.000555523 5.08115e-05)
(0.00130058 -0.000397097 0.000476737)
(0.00165273 -0.000168649 0.00071877)
(0.00139055 -2.33476e-06 0.00088902)
(0.000868706 0.000131994 0.0011891)
(0.000639848 9.1228e-05 0.00143222)
(0.0010673 0.000195094 0.000926835)
(0.00115387 0.000229374 -0.000170381)
(0.000532334 0.000369911 -0.000879879)
(-8.53658e-05 0.000516513 -0.000845764)
(-0.00029213 0.000400408 -0.000333826)
(-0.000347292 0.000116383 0.000264929)
(-0.000547538 -3.55545e-05 0.000652543)
(-0.000749004 -2.31535e-06 0.000736896)
(-0.00044389 -7.74854e-05 0.00048928)
(0.00102009 -0.00034722 -0.000153063)
(0.00312985 -0.000684192 -0.000833189)
(0.00332999 -0.000944933 -0.000584747)
(0.000865322 -0.000759953 0.000534742)
(-0.00158531 0.00011631 0.00137471)
(-0.00243444 0.00108884 0.0014155)
(-0.00212421 0.00150252 0.000978119)
(-0.00130435 0.00122304 0.000432379)
(-0.00047402 0.000435748 4.12676e-05)
(-8.2901e-05 -0.000693238 -0.000186785)
(0.000511602 -0.00177981 -0.00027356)
(0.00209381 -0.00202102 -0.000263102)
(0.00306002 -0.000892746 -0.000419752)
(0.002477 0.000948091 -0.000608606)
(0.00100017 0.0020126 -0.000810262)
(-0.000380101 0.0017116 -0.000960305)
(-0.00103249 0.000776088 -0.000732907)
(-0.00110541 3.76085e-05 -0.000180679)
(-0.00103998 -0.000256119 0.000268145)
(-0.00119096 -0.000227638 0.000277498)
(-0.00162786 -7.38278e-05 -0.000143604)
(-0.00209097 3.34231e-05 -0.000713951)
(-0.00219477 -2.21708e-05 -0.00108449)
(-0.00176926 -0.000232099 -0.0010658)
(-0.000905189 -0.000457703 -0.000669289)
(7.88737e-05 -0.000546422 -9.50611e-05)
(0.000825242 -0.000471628 0.000409396)
(0.00118294 -0.000301799 0.00068909)
(0.00115021 -0.000153524 0.00085644)
(0.000796362 -4.69674e-05 0.0011895)
(0.000318142 -0.000171439 0.00147287)
(0.000685688 2.91877e-05 0.00109427)
(0.000811386 0.000329601 -2.16064e-05)
(0.000320844 0.000601235 -0.000896372)
(-1.01982e-05 0.000680763 -0.00100053)
(0.000119769 0.000473958 -0.000539448)
(0.00024169 0.000154633 0.000122399)
(3.06148e-05 -2.63446e-05 0.000699711)
(-0.000360436 -4.79101e-06 0.000927712)
(-0.000543059 -6.77176e-05 0.000659769)
(0.00012246 -0.000395842 -6.03078e-05)
(0.00197131 -0.000806678 -0.000833014)
(0.00322966 -0.000980004 -0.000761482)
(0.00192037 -0.00062138 0.000276022)
(-0.000520705 0.000256307 0.00122264)
(-0.00188291 0.00113463 0.00137626)
(-0.00194066 0.00148196 0.000826882)
(-0.00128008 0.00122245 0.000119374)
(-0.000482368 0.000548552 -8.96186e-05)
(-2.7778e-05 -0.000452634 0.000153561)
(0.000139976 -0.00161167 0.000256924)
(0.000984865 -0.0020918 0.000180128)
(0.00227361 -0.00106767 0.000105293)
(0.00233002 0.000803188 -0.000147332)
(0.00108032 0.0018361 -0.000689941)
(-7.74213e-05 0.00152199 -0.00105272)
(-0.000593899 0.000610209 -0.000814671)
(-0.000740202 -3.61341e-05 -0.000184346)
(-0.000810151 -0.000235845 0.000321226)
(-0.00103644 -0.000134004 0.00034058)
(-0.00152744 6.51117e-05 -0.000142906)
(-0.00211677 0.000177533 -0.000867382)
(-0.00237702 8.28213e-05 -0.00143355)
(-0.00196756 -0.000164918 -0.00150748)
(-0.0009883 -0.000424357 -0.00104686)
(0.000107803 -0.00051923 -0.000317673)
(0.000815927 -0.000439461 0.000312392)
(0.000976457 -0.000299703 0.000657228)
(0.000801588 -0.000217882 0.000842068)
(0.000481107 -0.000217125 0.00116432)
(9.55606e-05 -0.000408699 0.00140729)
(0.000105134 -0.000234681 0.00115227)
(0.000207232 0.00026223 0.000182556)
(0.00013161 0.000691888 -0.000654493)
(0.000246318 0.000768812 -0.000809274)
(0.00061148 0.000559616 -0.000529478)
(0.000821921 0.000244953 -0.000108811)
(0.000578975 2.38398e-05 0.000398194)
(2.6057e-05 -3.15881e-05 0.000806245)
(-0.000410304 -0.000106405 0.000772286)
(-0.000214755 -0.000432483 9.97045e-05)
(0.00107684 -0.000874302 -0.000840491)
(0.00259728 -0.00104846 -0.00104053)
(0.00238172 -0.000645639 -0.000110741)
(0.000455696 0.00020883 0.00101321)
(-0.0011675 0.00101936 0.00127125)
(-0.00154786 0.00137414 0.000488519)
(-0.00120068 0.00124067 -0.000406402)
(-0.000701844 0.00075904 -0.000355853)
(-0.000230478 -5.98788e-05 0.000528164)
(0.000121802 -0.00121373 0.00109451)
(0.000552523 -0.00195312 0.00090554)
(0.0012645 -0.00121995 0.000495922)
(0.00140392 0.000511062 -3.09005e-05)
(0.000896698 0.00153005 -0.000716115)
(0.000475294 0.00126146 -0.00104515)
(9.7523e-05 0.000463296 -0.000722488)
(-0.00030016 -6.71325e-05 -6.20044e-05)
(-0.000597939 -0.000186671 0.000445509)
(-0.000851778 -2.63846e-05 0.000491625)
(-0.00125067 0.000221401 4.27373e-05)
(-0.00186182 0.000348892 -0.000743684)
(-0.00240153 0.000221493 -0.0015586)
(-0.00228297 -0.000107825 -0.00193864)
(-0.00136003 -0.000418381 -0.00159165)
(-0.000148999 -0.000525813 -0.00071537)
(0.000682442 -0.000403127 0.00014283)
(0.000924722 -0.000205185 0.000616461)
(0.000775967 -0.000133058 0.000810932)
(0.000436668 -0.00026379 0.00108854)
(0.000198517 -0.000469238 0.00125841)
(-0.000139154 -0.000421123 0.00115604)
(-0.000204854 7.50379e-05 0.000508067)
(2.86766e-05 0.000564095 -0.000131312)
(0.000483657 0.000707663 -0.000374925)
(0.000948024 0.000579076 -0.00041016)
(0.00114841 0.00034783 -0.000371223)
(0.000873875 0.000150629 -9.4561e-05)
(0.000225175 7.44897e-05 0.000420943)
(-0.000373215 -2.16776e-05 0.000800689)
(-0.000439536 -0.000409809 0.000516862)
(0.000479063 -0.000981535 -0.00046346)
(0.00204275 -0.00123701 -0.00113773)
(0.00256375 -0.00084057 -0.000521785)
(0.00131614 4.31024e-05 0.000657607)
(-0.000287278 0.000857692 0.000896141)
(-0.00108006 0.00123884 -7.51353e-05)
(-0.00126493 0.00126339 -0.000970934)
(-0.0011232 0.000975316 -0.000634853)
(-0.000642194 0.000291903 0.000720946)
(4.27944e-05 -0.000732815 0.00183999)
(0.000550236 -0.00150007 0.0017466)
(0.000720956 -0.00111944 0.000887283)
(0.000820471 0.000172418 -4.08089e-05)
(0.00113108 0.00102532 -0.000725937)
(0.00116582 0.000883389 -0.000904088)
(0.000567757 0.000350025 -0.000544508)
(-0.000163403 -2.47952e-05 4.46159e-05)
(-0.000589132 -9.36289e-05 0.000507375)
(-0.000724445 8.36644e-05 0.000639407)
(-0.000859498 0.000353166 0.000388543)
(-0.00129354 0.000493362 -0.000265075)
(-0.00202056 0.000340643 -0.00124419)
(-0.0024462 -5.44744e-05 -0.00210911)
(-0.00189529 -0.000418777 -0.00221206)
(-0.00066999 -0.000530463 -0.00140653)
(0.000352479 -0.000371617 -0.000273283)
(0.000751727 -0.000120859 0.000510461)
(0.000747963 -1.63744e-05 0.000820421)
(0.000562658 -0.00019183 0.0010133)
(0.000286512 -0.000389823 0.00106272)
(3.88767e-05 -0.000432728 0.00101367)
(-1.78674e-05 -6.10433e-05 0.000722868)
(0.000252391 0.000350304 0.000346267)
(0.00063721 0.000506202 3.58992e-05)
(0.000896041 0.000467147 -0.000249381)
(0.000966225 0.000340335 -0.000491854)
(0.000781978 0.000238813 -0.000497638)
(0.000313751 0.000232771 -0.000107614)
(-0.000207957 0.000209767 0.000512669)
(-0.000342264 -0.000172393 0.000746525)
(0.000262446 -0.000966002 0.000155765)
(0.00162122 -0.00153027 -0.000687312)
(0.00255462 -0.00124131 -0.000634527)
(0.00191236 -0.000295379 9.5344e-05)
(0.000357761 0.000645 0.000157304)
(-0.000936956 0.00124919 -0.000581258)
(-0.00154068 0.00146309 -0.00103522)
(-0.00142823 0.00112441 -0.000636794)
(-0.000908927 0.000305751 0.000543648)
(-0.000157213 -0.000615908 0.00192567)
(0.000717588 -0.00118348 0.00231865)
(0.00128149 -0.000927727 0.0014724)
(0.0015701 -8.46058e-05 0.000250543)
(0.00156725 0.000546598 -0.000613345)
(0.00100494 0.00061419 -0.000878454)
(0.000187941 0.000379097 -0.000626004)
(-0.000388735 0.00013864 -0.000114377)
(-0.000558281 6.4586e-05 0.000397195)
(-0.000463329 0.000181265 0.000745331)
(-0.000394475 0.000377905 0.000822685)
(-0.000670399 0.00048863 0.000459305)
(-0.00141329 0.000358242 -0.000496175)
(-0.00225355 -4.10011e-05 -0.00177341)
(-0.00233347 -0.000472784 -0.00255453)
(-0.00130885 -0.000604522 -0.00222132)
(-2.64486e-05 -0.000386333 -0.00104453)
(0.000613552 -4.28084e-05 0.000139112)
(0.000632455 0.000115422 0.000794318)
(0.000481879 -6.37204e-05 0.00100021)
(0.000322006 -0.000277181 0.000970566)
(0.000316038 -0.00043808 0.000702525)
(0.000441368 -0.000194107 0.000431782)
(0.000712762 0.000214372 0.00023613)
(0.000895551 0.000476078 0.00015927)
(0.000794389 0.00049182 8.6117e-05)
(0.000537975 0.000322724 -0.000115548)
(0.000324113 0.000148148 -0.00035276)
(0.000183516 0.000124945 -0.000318861)
(7.84715e-05 0.000217233 0.000148983)
(0.000140734 3.96213e-05 0.000641595)
(0.000597397 -0.000746078 0.000509502)
(0.00150642 -0.00161087 -0.000165053)
(0.00227294 -0.00159476 -0.000552519)
(0.00183951 -0.000563967 -0.00042555)
(0.000332083 0.000726813 -0.00034746)
(-0.00108297 0.00159452 -0.000441577)
(-0.00156727 0.00169739 -0.000470998)
(-0.00122981 0.00106903 -0.000331751)
(-0.000743879 7.21917e-05 0.000233965)
(-0.000431558 -0.000836011 0.00131324)
(9.47107e-05 -0.00121817 0.00207727)
(0.000882705 -0.000913736 0.00171211)
(0.00131367 -0.000190021 0.000526536)
(0.00110465 0.000434713 -0.00057472)
(0.000542584 0.000675663 -0.00102024)
(0.000130569 0.000592178 -0.000807497)
(8.47346e-05 0.000345674 -0.000257326)
(0.000201993 0.000189752 0.000329079)
(0.000288789 0.000213315 0.000809639)
(0.000188777 0.000307398 0.00109621)
(-0.000226865 0.000340345 0.00101584)
(-0.000968776 0.000226598 0.000294938)
(-0.0018815 -9.50746e-05 -0.00105697)
(-0.00244874 -0.000543298 -0.0023577)
(-0.00201787 -0.000771309 -0.00270547)
(-0.000809183 -0.000548452 -0.0018993)
(0.000177753 -7.20206e-05 -0.000549348)
(0.00046816 0.00023193 0.000553989)
(0.000394871 0.000104228 0.00102618)
(0.000288612 -0.000107525 0.000960658)
(0.00042887 -0.000350884 0.000524385)
(0.000704914 -0.000211204 7.56278e-05)
(0.00108071 0.000183201 -9.10253e-05)
(0.00127316 0.000502123 5.88143e-05)
(0.00104985 0.000519287 0.000299322)
(0.000517694 0.000273509 0.000331755)
(4.76505e-05 -2.96793e-05 9.0322e-05)
(-0.000106489 -0.00014218 -0.000147981)
(5.17895e-05 -2.257e-05 -2.16262e-05)
(0.000460498 -7.44561e-06 0.000387716)
(0.0010606 -0.000547577 0.000499358)
(0.00168921 -0.00138521 4.60479e-05)
(0.00195174 -0.00153051 -0.000474797)
(0.00131309 -0.000500748 -0.000548999)
(-4.5904e-05 0.000918184 -0.000254103)
(-0.00114877 0.00171467 3.88227e-06)
(-0.00140164 0.00158029 -5.91987e-05)
(-0.000968452 0.000794865 -0.000209295)
(-0.00039677 -0.000165812 6.07209e-05)
(-0.000198438 -0.000948655 0.000883173)
(-0.00029873 -0.00122779 0.00159381)
(-0.00030871 -0.000886522 0.0014513)
(-0.000354417 -0.000118495 0.000493522)
(-0.00053875 0.000606707 -0.000535093)
(-0.000410928 0.000924474 -0.000973885)
(0.000344222 0.000761177 -0.000759063)
(0.00126749 0.000394431 -0.000255486)
(0.00170659 0.000164209 0.000230876)
(0.00149846 0.000234973 0.000639254)
(0.000931883 0.000409737 0.00098293)
(0.000266203 0.000379451 0.00116791)
(-0.000460953 0.000107409 0.000863929)
(-0.00127934 -0.000231933 -0.000221501)
(-0.00204573 -0.000602142 -0.00171932)
(-0.00228515 -0.000905467 -0.00263704)
(-0.00169101 -0.000820672 -0.00238367)
(-0.000745331 -0.000325314 -0.00123329)
(-9.73721e-05 0.000153947 7.9845e-05)
(0.000170877 0.000209124 0.000893073)
(0.00023955 2.31039e-05 0.000686131)
(0.000539963 -0.000105529 0.000409288)
(0.000902845 -3.88027e-05 4.95428e-07)
(0.00144086 0.000192038 -0.000164114)
(0.00177142 0.000412234 -3.13213e-06)
(0.00137721 0.00044486 0.000308726)
(0.000433105 0.000169155 0.000497632)
(-0.000340091 -0.000253316 0.000388848)
(-0.000520654 -0.000475848 9.03768e-05)
(-0.00016365 -0.000383557 -4.32458e-05)
(0.000544982 -0.000261318 0.000147316)
(0.00137165 -0.000498085 0.000319141)
(0.0019116 -0.000985984 9.00074e-05)
(0.00175086 -0.000969117 -0.000279123)
(0.000832403 -7.59375e-05 -0.00024867)
(-0.000382578 0.00100412 0.000107938)
(-0.00126155 0.00143948 0.000201323)
(-0.00143305 0.00109251 -0.000166828)
(-0.000975623 0.000362788 -0.000501493)
(-0.000331771 -0.000422238 -0.000288599)
(-5.01303e-05 -0.00096786 0.00048108)
(-0.000341418 -0.00106632 0.00122314)
(-0.000945142 -0.000623477 0.00122833)
(-0.00144891 0.000127231 0.000489407)
(-0.00142564 0.000699956 -0.00036728)
(-0.000504092 0.00073352 -0.000732868)
(0.00103331 0.000336168 -0.000539587)
(0.00215251 4.78403e-05 -0.00014255)
(0.00210045 0.000218707 0.000125312)
(0.00122531 0.000654422 0.000301088)
(0.000567148 0.000914656 0.000627446)
(0.000532744 0.00071841 0.00110156)
(0.000553975 0.00013403 0.00128894)
(3.84102e-05 -0.000399982 0.000669336)
(-0.000913127 -0.00066425 -0.000741674)
(-0.00179495 -0.000813103 -0.00206308)
(-0.00210243 -0.000840047 -0.00237137)
(-0.0017122 -0.000557414 -0.00163633)
(-0.000973527 -0.000121824 -0.000468277)
(-0.000256783 0.000103315 0.000424705)
(-0.000165661 -7.49105e-05 -3.61969e-05)
(0.000689776 -4.92369e-05 -0.000239887)
(0.00154524 -2.73008e-05 -0.000434067)
(0.00204821 0.000121349 -0.000391632)
(0.00172068 0.00047892 -0.000115304)
(0.000668669 0.000765559 0.000326604)
(-0.000388014 0.000513057 0.000775106)
(-0.000938304 -0.000221041 0.000938771)
(-0.00088352 -0.000840566 0.000654811)
(-0.000299058 -0.000902493 0.000152622)
(0.000618791 -0.000615873 -0.000114734)
(0.00151509 -0.000444348 -1.92538e-05)
(0.00192566 -0.000500464 0.000145783)
(0.00153359 -0.000372895 0.000216429)
(0.000497509 0.00014827 0.000332121)
(-0.000603983 0.000691312 0.000341325)
(-0.00129323 0.000903097 -1.96104e-05)
(-0.00139613 0.000747407 -0.000551477)
(-0.000972487 0.000311975 -0.000823117)
(-0.000304641 -0.000269303 -0.000644764)
(9.47923e-05 -0.000735711 -9.03111e-05)
(-0.000103623 -0.000809346 0.000518258)
(-0.000580763 -0.000386106 0.000753847)
(-0.00062256 0.000224528 0.000521118)
(0.000124657 0.000527324 0.000199852)
(0.00120807 0.000383978 0.000116936)
(0.00169902 0.000165458 0.000132753)
(0.00109584 0.000243455 -2.42832e-05)
(-0.00016672 0.000607019 -0.000333447)
(-0.00105945 0.000918563 -0.000311)
(-0.00094327 0.00097545 0.000333393)
(4.77979e-05 0.000707457 0.00127295)
(0.00119808 0.000156861 0.00182328)
(0.00153507 -0.000424853 0.00151719)
(0.000768486 -0.000688865 0.000324996)
(-0.000450678 -0.000687718 -0.00112055)
(-0.00140341 -0.000655128 -0.00189746)
(-0.00176585 -0.000588715 -0.00164971)