/*--------------------------------*- C++ -*----------------------------------*\
| =========                 |                                                 |
| \\      /  F ield         | OpenFOAM: The Open Source CFD Toolbox           |
|  \\    /   O peration     | Version:  5.0                                   |
|   \\  /    A nd           | Web:      www.OpenFOAM.org                      |
|    \\/     M anipulation  |                                                 |
\*---------------------------------------------------------------------------*/
FoamFile
{
    version     2.0;
    format      ascii;
    class       volVectorField;
    location    "50.4676134421789371";
    object      UPrimeMean;
}
// * * * * * * * * * * * * * * * * * * * * * * * * * * * * * * * * * * * * * //

dimensions      [0 1 -1 0 0 0 0];

internalField   nonuniform List<vector> 
60000
(
(1.74779e-05 -1.65187e-05 -0.000305068)
(0.000217402 -1.8967e-05 -0.000268974)
(0.000358027 -1.46182e-05 -0.000172969)
(0.000348316 -4.92617e-06 -2.77517e-05)
(0.000187291 2.27859e-06 0.000117007)
(1.07762e-05 3.55155e-06 0.000204767)
(-7.98166e-05 2.09781e-06 0.000223942)
(-0.000159902 1.3165e-06 0.000158358)
(-0.000269259 1.50357e-06 2.3488e-05)
(-0.000310819 -4.05361e-07 -0.000121201)
(-0.000237098 -6.53283e-06 -0.000198155)
(-0.0001097 -9.84406e-06 -0.000187484)
(-5.08337e-05 -6.39239e-06 -0.000129203)
(-8.96136e-05 -5.42857e-06 -6.66482e-05)
(-0.000130697 -9.51081e-06 1.49046e-05)
(-9.72687e-05 -1.25422e-05 0.00013491)
(-4.65756e-05 -1.10859e-06 0.000262551)
(-9.47011e-05 1.23382e-05 0.000364652)
(-0.000281953 2.27689e-05 0.000473435)
(-0.000597035 2.42052e-05 0.000498258)
(-0.000985503 2.48207e-05 0.000350825)
(-0.00131186 1.23033e-05 9.81007e-05)
(-0.00142815 -2.41224e-06 -0.000150339)
(-0.00145559 -3.442e-06 -0.000315073)
(-0.00160141 1.31242e-05 -0.000352948)
(-0.00177493 2.10248e-05 -0.000334537)
(-0.00173973 9.87384e-06 -0.000344332)
(-0.00133661 -7.79476e-06 -0.000382469)
(-0.000736109 -1.50017e-05 -0.000338049)
(-0.000371671 -1.19733e-05 -0.000129126)
(-0.000433038 -9.35273e-06 0.000153727)
(-0.000644669 -1.52049e-05 0.000361833)
(-0.00073617 -2.27558e-05 0.000474773)
(-0.000558503 -2.38651e-05 0.000564813)
(-0.000132288 -1.58271e-05 0.000616794)
(0.000166789 1.68115e-06 0.000487058)
(1.51807e-05 -2.3138e-06 0.000152166)
(-0.000240039 -5.61703e-06 -0.000145886)
(-0.000281895 -9.08967e-06 -0.000277761)
(-0.000166415 -1.19661e-05 -0.000309455)
(-0.000424822 -8.02833e-05 -0.00055293)
(2.87672e-05 -7.01109e-05 -0.000331275)
(0.000373326 -2.65308e-05 -8.90926e-05)
(0.000502807 1.8889e-05 0.000116566)
(0.000365391 3.67033e-05 0.000344171)
(6.07064e-05 1.45264e-05 0.000497916)
(-0.00016943 -5.00438e-06 0.000409977)
(-0.000348069 -7.21628e-06 9.82769e-05)
(-0.000644461 1.97843e-06 -0.000325183)
(-0.000900776 -2.10988e-05 -0.000627566)
(-0.000911367 -4.88776e-05 -0.000684642)
(-0.000657805 -5.48854e-05 -0.000518723)
(-0.00034455 -2.10186e-05 -0.000225945)
(-0.000228442 1.31308e-05 6.58761e-05)
(-0.000341166 1.80353e-05 0.00032348)
(-0.000517292 2.22974e-05 0.000554824)
(-0.00065034 4.16808e-05 0.000690986)
(-0.000797515 5.41554e-05 0.000728963)
(-0.000962313 2.37935e-05 0.000756755)
(-0.00115449 -2.87752e-05 0.000638722)
(-0.00145421 -5.13137e-05 0.000177421)
(-0.00191767 -4.29217e-05 -0.000480642)
(-0.00234715 -8.78289e-06 -0.000902223)
(-0.00277436 6.67816e-05 -0.000906286)
(-0.0033272 0.000155005 -0.000659684)
(-0.00384657 0.000194725 -0.00039057)
(-0.0040129 0.000147782 -0.0002502)
(-0.00356637 5.14136e-05 -0.0002565)
(-0.00253926 -2.37613e-05 -0.000278709)
(-0.00146337 -3.40986e-05 -0.000125758)
(-0.0010595 -8.27536e-06 0.000232344)
(-0.0013322 -6.37356e-06 0.00058624)
(-0.00173007 -3.57786e-05 0.000767108)
(-0.00178845 -5.98615e-05 0.000838426)
(-0.0012306 -6.30917e-05 0.000852278)
(-0.000274082 -1.53421e-05 0.000679666)
(0.000132752 2.22985e-05 0.000184398)
(-0.000315073 7.45528e-06 -0.000386718)
(-0.000755105 -3.2753e-05 -0.000682873)
(-0.00075454 -6.63051e-05 -0.000689159)
(-0.000867516 -0.000117413 -0.000611786)
(-0.000483959 -0.000122438 -0.000372106)
(-0.000152862 -5.19698e-05 -6.46049e-05)
(7.64819e-05 2.94094e-05 0.000132617)
(0.000246904 7.41331e-05 0.000275704)
(0.000212939 4.50431e-05 0.000488173)
(-1.12451e-05 2.65242e-06 0.000511429)
(-0.000238978 -1.65129e-05 0.000199721)
(-0.000545332 1.00106e-05 -0.00032073)
(-0.000917175 -1.94659e-05 -0.000748516)
(-0.0010718 -6.62933e-05 -0.000845695)
(-0.000904155 -9.95465e-05 -0.000671767)
(-0.000536554 -6.57694e-05 -0.000340636)
(-0.000268484 4.96986e-06 1.9481e-05)
(-0.000332065 5.00077e-05 0.000318345)
(-0.000613673 9.16022e-05 0.000544897)
(-0.000809048 0.000136177 0.000667889)
(-0.000803916 0.00014898 0.000676599)
(-0.000687768 4.754e-05 0.000671007)
(-0.000640298 -0.000122505 0.000521685)
(-0.000757398 -0.000216063 -7.57975e-06)
(-0.00119872 -0.00017078 -0.000869449)
(-0.00171787 -3.55793e-05 -0.00142299)
(-0.00210127 0.000151013 -0.00127935)
(-0.002452 0.00030439 -0.000780373)
(-0.00272894 0.000350564 -0.000282837)
(-0.00277827 0.000255003 1.59597e-05)
(-0.00248674 9.09093e-05 8.92598e-05)
(-0.00186437 -4.05254e-05 3.78835e-05)
(-0.00112438 -7.3733e-05 1.87273e-05)
(-0.000655892 -2.61228e-05 0.000139805)
(-0.000700944 1.76492e-05 0.000364945)
(-0.00105065 -7.67792e-07 0.000553499)
(-0.00133923 -4.65849e-05 0.000640749)
(-0.00123338 -8.11357e-05 0.000651927)
(-0.000651413 -5.32995e-05 0.000558598)
(-2.20103e-05 2.65865e-05 0.000285731)
(-8.16907e-05 6.38365e-05 -0.000150396)
(-0.000685086 2.53467e-05 -0.0005364)
(-0.00100652 -5.32174e-05 -0.000691031)
(-0.000632366 -0.000152174 -0.000720074)
(-0.000297185 -0.000184473 -0.00049554)
(2.07848e-05 -8.24753e-05 -0.000117932)
(0.000189121 3.96109e-05 0.000152396)
(0.000366095 0.000103095 0.000250822)
(0.000510192 7.97862e-05 0.000406768)
(0.000426259 2.53772e-05 0.000565601)
(0.000164588 -2.18972e-05 0.0003741)
(-0.000139642 6.10835e-06 -0.00016088)
(-0.000545066 -5.45128e-08 -0.000742983)
(-0.000792601 -7.56609e-05 -0.000960699)
(-0.000626214 -0.000144893 -0.000786442)
(-0.000175991 -0.000119555 -0.000403116)
(0.000185294 -1.31242e-05 2.4831e-05)
(0.000112202 8.203e-05 0.000375036)
(-0.000308147 0.000151317 0.000603812)
(-0.000586965 0.000205914 0.000704024)
(-0.000400689 0.000204372 0.000688891)
(3.74141e-05 5.58994e-05 0.000677973)
(0.000278242 -0.00022202 0.000536002)
(0.000133758 -0.000395453 -3.02756e-05)
(-0.000416068 -0.000308431 -0.00105171)
(-0.00106646 -4.64575e-05 -0.00178594)
(-0.00138001 0.000256571 -0.00157092)
(-0.0014964 0.000448158 -0.000867335)
(-0.00150667 0.000453242 -0.000179013)
(-0.00137961 0.000271673 0.000239777)
(-0.00106735 2.61756e-05 0.000364173)
(-0.000542463 -0.000147948 0.000307162)
(8.10653e-05 -0.00017873 0.000215924)
(0.000507109 -9.66271e-05 0.000210426)
(0.000518078 -2.55128e-06 0.000312409)
(0.000194354 1.80278e-05 0.00045412)
(-0.000159422 -3.38513e-05 0.000577498)
(-0.000283654 -0.000100631 0.000638369)
(5.52321e-05 -9.65396e-05 0.000568417)
(0.000582227 1.5234e-06 0.000341509)
(0.00062819 0.000103185 1.23892e-06)
(1.022e-05 9.61073e-05 -0.000372086)
(-0.000602569 -1.83943e-05 -0.000660452)
(-0.000499301 -0.000162488 -0.000824626)
(-0.000250567 -0.0002673 -0.000776942)
(0.000168139 -0.000149962 -0.000345959)
(0.000416204 2.85728e-05 7.15285e-05)
(0.000592755 0.000117187 0.000234186)
(0.000796675 9.86416e-05 0.000342017)
(0.000842929 4.67766e-05 0.000562335)
(0.000639597 -1.05473e-05 0.000565703)
(0.000325136 3.78081e-06 0.000120236)
(-0.000113134 2.87747e-05 -0.000599878)
(-0.000585471 -7.4704e-05 -0.00110431)
(-0.000617838 -0.000210848 -0.00106743)
(-0.000130657 -0.000217006 -0.000644257)
(0.000397202 -7.01526e-05 -8.57479e-05)
(0.000395813 0.000103621 0.000410896)
(-0.000152446 0.00021835 0.000726742)
(-0.000582441 0.000281017 0.000823231)
(-0.000321735 0.000248891 0.000751778)
(0.000452465 6.45889e-05 0.000722988)
(0.00104685 -0.000302536 0.000672684)
(0.000875813 -0.000595743 0.000133736)
(8.40885e-05 -0.000500279 -0.0010347)
(-0.000867345 -8.99343e-05 -0.00203963)
(-0.00129729 0.00037712 -0.00189896)
(-0.00128103 0.000627107 -0.0010721)
(-0.00109107 0.000595637 -0.000222911)
(-0.000904637 0.000335808 0.000291573)
(-0.000713309 6.83075e-06 0.000451791)
(-0.000369846 -0.000239981 0.000417857)
(0.000225519 -0.000299838 0.00032301)
(0.000817338 -0.000194523 0.000256506)
(0.00106154 -5.59776e-05 0.000266192)
(0.000947286 1.06253e-05 0.000341781)
(0.000671565 -1.27579e-05 0.000481246)
(0.000417522 -9.7618e-05 0.000667551)
(0.00044868 -0.000136742 0.000736271)
(0.000886085 -3.94318e-05 0.000552598)
(0.00110034 0.000113097 0.000225904)
(0.000656519 0.000168472 -0.000126869)
(-0.000120144 5.19827e-05 -0.000516042)
(-0.000341747 -7.28708e-05 -0.000603854)
(-0.000429338 -0.000310901 -0.00089405)
(-9.5094e-05 -0.000249032 -0.000658187)
(0.000255053 -1.9367e-05 -0.000152496)
(0.000498126 0.000120027 0.000149612)
(0.000765642 0.000109066 0.000255127)
(0.00096001 5.85157e-05 0.00045444)
(0.000951178 1.30183e-05 0.000642362)
(0.000772899 1.21786e-05 0.000412947)
(0.000426122 4.70196e-05 -0.000252017)
(-0.000159946 -4.71022e-05 -0.00101104)
(-0.000586566 -0.00026834 -0.00127922)
(-0.000387671 -0.000356612 -0.000966053)
(0.000135866 -0.000205313 -0.000313929)
(0.000235931 7.83318e-05 0.000387143)
(-0.000348868 0.000303941 0.000875816)
(-0.00090653 0.000391705 0.000979682)
(-0.000644104 0.000315312 0.000751709)
(0.000370079 9.1932e-05 0.000585077)
(0.00150076 -0.000326721 0.000657006)
(0.00163127 -0.00075847 0.000331708)
(0.000593292 -0.000727508 -0.000868936)
(-0.000807056 -0.000177001 -0.00213841)
(-0.00144658 0.000479112 -0.0021532)
(-0.00122676 0.000822907 -0.00125242)
(-0.000824696 0.000768199 -0.000282649)
(-0.000668453 0.000442642 0.000259827)
(-0.000661521 5.76536e-05 0.000400924)
(-0.000638111 -0.000248005 0.000367981)
(-0.000416398 -0.000381486 0.000299003)
(8.28746e-05 -0.000312117 0.000237167)
(0.000600685 -0.000149235 0.000198343)
(0.000920705 -3.64013e-05 0.000195421)
(0.00105821 -1.55997e-05 0.000271303)
(0.000989236 -6.97658e-05 0.000476744)
(0.000752844 -0.000133351 0.000718383)
(0.000718535 -8.26435e-05 0.000728582)
(0.000933915 9.17708e-05 0.000490248)
(0.000845319 0.000226275 0.000200209)
(0.000284966 0.000177801 -0.000149624)
(4.11865e-05 7.65065e-05 -0.000204468)
(-0.000332069 -0.000236613 -0.000678577)
(-0.000279654 -0.000307454 -0.000782222)
(-6.54543e-05 -9.1082e-05 -0.000412322)
(0.000146833 9.18358e-05 -2.43714e-05)
(0.000416085 0.000102661 0.0001396)
(0.000719334 5.26838e-05 0.000295745)
(0.000922555 3.32024e-05 0.000558043)
(0.0010523 3.45163e-05 0.0005635)
(0.0010309 5.6741e-05 7.63806e-05)
(0.000610431 -2.39271e-05 -0.000710988)
(-6.94813e-05 -0.000295917 -0.00127313)
(-0.000346544 -0.000495309 -0.00115034)
(-0.000177554 -0.000383636 -0.000484367)
(-0.000221124 3.96268e-07 0.000403028)
(-0.000823028 0.000383732 0.00108623)
(-0.00131294 0.000529464 0.00119831)
(-0.000981705 0.00039778 0.000744204)
(6.41923e-05 9.35969e-05 0.000317114)
(0.00158231 -0.000357436 0.00038376)
(0.00234543 -0.000852087 0.000386909)
(0.00133467 -0.000905701 -0.000628966)
(-0.000475623 -0.000259082 -0.00204416)
(-0.00126446 0.000550566 -0.00220178)
(-0.000897018 0.000995505 -0.00125569)
(-0.00055655 0.000921363 -0.000288084)
(-0.000576208 0.000533245 0.000185349)
(-0.000651313 0.000105356 0.000309377)
(-0.000692493 -0.000211438 0.000304196)
(-0.000755239 -0.000367117 0.000248236)
(-0.00070269 -0.000366767 0.000170177)
(-0.000351472 -0.000267443 0.000102039)
(0.000237888 -0.00016023 6.46626e-05)
(0.000873399 -0.000102338 9.49663e-05)
(0.00131089 -9.86322e-05 0.000255013)
(0.00128808 -0.000114543 0.000529309)
(0.000922119 -8.30053e-05 0.0007177)
(0.000714321 4.54796e-05 0.000656125)
(0.000710668 0.000209291 0.000476044)
(0.000514595 0.000258905 0.000232188)
(0.000335367 0.0002017 0.000212955)
(6.79277e-05 -7.21216e-05 -0.000329237)
(-8.44124e-05 -0.000235455 -0.000642107)
(-0.000102176 -9.85336e-05 -0.000500312)
(-0.000147383 6.743e-05 -0.000183754)
(-0.000103953 7.4357e-05 -7.45856e-08)
(0.000140979 1.15746e-05 0.000126233)
(0.000468966 1.46726e-05 0.000381961)
(0.000887925 4.01878e-05 0.000562105)
(0.00137674 5.13072e-05 0.000265601)
(0.00146878 -2.29534e-05 -0.000407827)
(0.000851995 -0.00031408 -0.00104313)
(6.78015e-05 -0.000622322 -0.00106389)
(-0.00033528 -0.000537406 -0.000429996)
(-0.000796318 -6.34767e-05 0.00054541)
(-0.00145373 0.000464389 0.00129422)
(-0.00163398 0.000671398 0.00129113)
(-0.00115673 0.000512482 0.00069667)
(-0.000272996 9.9977e-05 7.947e-05)
(0.00121217 -0.000427027 -9.80989e-06)
(0.00261381 -0.000927643 0.000209623)
(0.00213634 -0.00101852 -0.000435095)
(0.000274191 -0.000340315 -0.00176571)
(-0.000641501 0.000591563 -0.00198209)
(-0.000496713 0.00114782 -0.00109957)
(-0.000466641 0.00106203 -0.000299304)
(-0.000653013 0.000604696 5.36158e-05)
(-0.000729228 0.000129228 0.000193111)
(-0.000715939 -0.000181484 0.000253292)
(-0.000795565 -0.00030203 0.000224593)
(-0.000987721 -0.00029798 0.000114409)
(-0.00106749 -0.000270271 -1.69392e-05)
(-0.00073827 -0.000262721 -9.84149e-05)
(5.11212e-05 -0.000248951 -7.68186e-05)
(0.000963587 -0.000209361 7.22671e-05)
(0.00147183 -0.000155317 0.000325669)
(0.00132348 -7.77507e-05 0.000564879)
(0.000848161 2.20277e-05 0.000653541)
(0.0005653 0.000151475 0.000632919)
(0.00049382 0.000257169 0.000547296)
(0.000454963 0.000240172 0.00057531)
(0.000462281 7.6152e-05 2.41844e-05)
(0.000373496 -9.85625e-05 -0.000458196)
(0.000196375 -2.14121e-05 -0.000480413)
(-0.000113973 0.000121502 -0.000233523)
(-0.000413811 0.000100564 -5.10018e-05)
(-0.000477083 -4.70672e-06 3.775e-05)
(-0.000278576 -2.32655e-05 0.000213776)
(0.000217207 5.60885e-06 0.000436417)
(0.00110992 4.97072e-06 0.000318231)
(0.00197098 -5.65638e-05 -0.00023705)
(0.0018533 -0.000345931 -0.000743995)
(0.000721336 -0.000708016 -0.000719688)
(-0.00041215 -0.000611611 -9.33996e-05)
(-0.00131189 -5.20939e-05 0.000774876)
(-0.00186403 0.000559612 0.00128266)
(-0.00171458 0.000819379 0.00111078)
(-0.00108533 0.000648756 0.000561607)
(-0.000429067 0.000130269 -1.74625e-05)
(0.000587764 -0.000526616 -0.00027157)
(0.0021901 -0.00104284 -8.18437e-05)
(0.00259492 -0.00109749 -0.00035464)
(0.00122757 -0.000395736 -0.00133668)
(0.000160867 0.000637376 -0.00153801)
(-0.000129595 0.00129163 -0.000869841)
(-0.000453146 0.00116886 -0.000360093)
(-0.000761168 0.00062198 -0.000121023)
(-0.00081559 0.000108848 7.70909e-05)
(-0.00076577 -0.000175622 0.000214331)
(-0.000834481 -0.00024579 0.000198318)
(-0.00105687 -0.000198392 4.65327e-05)
(-0.00128291 -0.00016341 -0.00014657)
(-0.00127042 -0.00021965 -0.000277413)
(-0.000788942 -0.000317709 -0.000262803)
(0.000124263 -0.000346433 -9.16104e-05)
(0.00101871 -0.00027222 0.000178091)
(0.00137622 -0.00013679 0.000425205)
(0.00114477 -7.02443e-06 0.000557765)
(0.000710338 8.96082e-05 0.0006563)
(0.000459528 0.000192718 0.000747206)
(0.000499561 0.000193173 0.000831934)
(0.000718181 0.000148497 0.000336206)
(0.000711547 3.94512e-05 -0.000300321)
(0.000381414 0.000105905 -0.000518059)
(-5.57264e-05 0.00023058 -0.000333307)
(-0.000376468 0.000179116 -5.54133e-05)
(-0.000544737 2.5819e-05 0.000127324)
(-0.000606718 -3.23666e-05 0.00024038)
(-0.000426057 -1.69287e-05 0.000352044)
(0.000339792 -5.69401e-05 0.000278407)
(0.00168426 -0.000161123 -0.00018462)
(0.00246745 -0.000400365 -0.000604115)
(0.00151286 -0.00069825 -0.000375477)
(-0.000260619 -0.000585316 0.000320564)
(-0.00152552 3.36845e-05 0.000937762)
(-0.0019121 0.000680204 0.00108185)
(-0.00154966 0.000953701 0.000800276)
(-0.000891416 0.000754358 0.000393742)
(-0.000372038 0.000174269 -7.88239e-06)
(8.9926e-05 -0.000598182 -0.000295131)
(0.00127116 -0.00119426 -0.000264543)
(0.00236266 -0.00120469 -0.000315212)
(0.00195858 -0.00041722 -0.000805997)
(0.00102262 0.000723145 -0.000953769)
(0.000242921 0.00138558 -0.00067957)
(-0.00045155 0.00118674 -0.000500442)
(-0.000826551 0.00056344 -0.00031306)
(-0.000846617 5.09784e-05 -1.96647e-05)
(-0.000781912 -0.000183026 0.000194936)
(-0.000869197 -0.000198238 0.000171485)
(-0.00111893 -0.000115667 -5.37605e-05)
(-0.00136013 -6.02268e-05 -0.000324141)
(-0.00139172 -0.000112669 -0.000488942)
(-0.0010912 -0.000256488 -0.000458124)
(-0.00044889 -0.000372538 -0.000238625)
(0.000343548 -0.00036962 7.63605e-05)
(0.00094716 -0.000250026 0.000353312)
(0.00112444 -9.6218e-05 0.000501015)
(0.000903538 7.62041e-06 0.000619652)
(0.000549265 9.86451e-05 0.000825366)
(0.00044586 6.99648e-05 0.000965116)
(0.000748956 0.000135256 0.000557616)
(0.000750424 0.000165585 -0.000188178)
(0.000304617 0.000272329 -0.000617955)
(-8.25623e-05 0.000356179 -0.000544499)
(-0.000194212 0.000246548 -0.00017427)
(-0.000240063 4.95174e-05 0.000220278)
(-0.000392509 -2.99951e-05 0.000456116)
(-0.000517298 -8.08361e-07 0.000486945)
(-0.000241518 -6.40201e-05 0.000294518)
(0.000856161 -0.000262552 -0.000167324)
(0.00225454 -0.000495695 -0.000588176)
(0.00215892 -0.000657053 -0.000324182)
(0.000366764 -0.000471911 0.000455992)
(-0.00120219 0.00016192 0.00096733)
(-0.00166687 0.000798574 0.000941152)
(-0.00140029 0.00102623 0.000623117)
(-0.000820564 0.000789292 0.000260205)
(-0.00027746 0.000221048 7.28666e-06)
(-4.12601e-05 -0.00056693 -0.000146211)
(0.000446704 -0.00127479 -0.000195847)
(0.00156509 -0.00133826 -0.000187784)
(0.00209704 -0.000468447 -0.000302959)
(0.00158638 0.000778777 -0.000423653)
(0.000551053 0.00139129 -0.000560979)
(-0.000346627 0.00110362 -0.000640384)
(-0.000732929 0.000457681 -0.000458185)
(-0.000750601 -1.14259e-05 -7.69638e-05)
(-0.00071356 -0.000180526 0.000198125)
(-0.000842349 -0.000145151 0.000161713)
(-0.00115442 -3.97116e-05 -0.000151432)
(-0.00144982 2.11401e-05 -0.000532138)
(-0.00147521 -3.23337e-05 -0.000750182)
(-0.00113941 -0.000183499 -0.00069646)
(-0.000524678 -0.000326563 -0.000401494)
(0.000138705 -0.000370045 -1.11137e-05)
(0.000613978 -0.000307166 0.000313078)
(0.000817731 -0.000189798 0.000482111)
(0.000759875 -9.5647e-05 0.000597514)
(0.000507188 -2.49811e-05 0.000834747)
(0.000225975 -0.000108333 0.00100244)
(0.000492759 4.02992e-05 0.000673785)
(0.000521372 0.000251455 -0.000100844)
(0.000173957 0.000429187 -0.000646306)
(-4.26748e-06 0.000460518 -0.00065964)
(0.000108371 0.00029108 -0.000313878)
(0.000169094 7.70507e-05 0.000138793)
(-9.64289e-06 -2.566e-05 0.000510939)
(-0.000280501 -1.97355e-06 0.000626243)
(-0.000363313 -5.89515e-05 0.00040144)
(0.000190606 -0.000301732 -0.000113891)
(0.00150377 -0.000576887 -0.000602936)
(0.00220081 -0.000666167 -0.000457975)
(0.00112461 -0.000371302 0.000282742)
(-0.000514271 0.000253017 0.000876645)
(-0.00133158 0.000823576 0.000913894)
(-0.00129274 0.00100972 0.000502452)
(-0.000809864 0.000793272 4.848e-05)
(-0.000276122 0.000308908 -4.34436e-05)
(-6.89102e-06 -0.000400616 0.000122908)
(0.000121845 -0.00117792 0.000162282)
(0.000783922 -0.00140232 0.000108117)
(0.00162242 -0.00058493 6.13318e-05)
(0.00151912 0.000685002 -0.00013139)
(0.000618218 0.001282 -0.000506405)
(-0.000123124 0.000965819 -0.000712571)
(-0.000432846 0.00034928 -0.000510503)
(-0.000512776 -5.37143e-05 -7.49575e-05)
(-0.000564761 -0.000158998 0.00023622)
(-0.000740583 -7.58747e-05 0.000201297)
(-0.00109588 5.66287e-05 -0.000163185)
(-0.00148571 0.000116311 -0.000658207)
(-0.00160678 3.39718e-05 -0.00100381)
(-0.00126458 -0.000142376 -0.000996062)
(-0.000566594 -0.000306131 -0.000640773)
(0.000161095 -0.000350628 -0.000143405)
(0.000593149 -0.000284946 0.000257056)
(0.000658301 -0.00019228 0.000463115)
(0.000519188 -0.000146246 0.000586914)
(0.000299017 -0.000149539 0.000819901)
(4.82405e-05 -0.000283097 0.000965763)
(7.91964e-05 -0.000129912 0.000728477)
(0.000131325 0.000222461 4.27204e-05)
(8.44771e-05 0.000496552 -0.000484307)
(0.00019739 0.000520921 -0.000540695)
(0.000455882 0.000356468 -0.000329802)
(0.000566997 0.000139219 -3.53961e-05)
(0.000354134 1.30612e-06 0.000315257)
(-3.49962e-05 -2.49064e-05 0.000570365)
(-0.000300158 -8.67851e-05 0.000493076)
(-8.53139e-05 -0.00032822 -1.49094e-05)
(0.000875678 -0.00062499 -0.000633077)
(0.00183998 -0.000707672 -0.000667657)
(0.00151056 -0.000386089 2.74847e-05)
(0.000141917 0.000214704 0.000754227)
(-0.000873572 0.000743291 0.000833249)
(-0.00104574 0.000942557 0.000247854)
(-0.000780338 0.000820471 -0.000307018)
(-0.00043827 0.00046722 -0.00017872)
(-0.000123914 -0.000125156 0.000439621)
(0.000106887 -0.000919232 0.000745367)
(0.000425576 -0.00133335 0.000572061)
(0.000905872 -0.000705276 0.000296777)
(0.000925471 0.000482828 -7.20922e-05)
(0.000561607 0.00107394 -0.000528227)
(0.000285836 0.000798549 -0.000704396)
(2.89548e-05 0.000259278 -0.000443926)
(-0.000232706 -6.80456e-05 9.00159e-06)
(-0.000425457 -0.000119953 0.000322843)
(-0.000606896 3.21044e-06 0.00030846)
(-0.000903124 0.00016663 -3.81137e-05)
(-0.0013348 0.000231582 -0.000594148)
(-0.00166176 0.000119929 -0.00112552)
(-0.00149391 -0.000109534 -0.00131286)
(-0.000810353 -0.00030541 -0.00100422)
(-2.81497e-06 -0.000354196 -0.000385954)
(0.000507922 -0.000254387 0.00016367)
(0.000626208 -0.000124043 0.000440375)
(0.000503171 -9.42448e-05 0.00056071)
(0.00026384 -0.00019726 0.00076562)
(0.000102697 -0.000338206 0.000869038)
(-0.000113329 -0.000261983 0.000756322)
(-0.000135026 9.84372e-05 0.000288745)
(4.97778e-05 0.000415239 -0.000124022)
(0.000373138 0.000483013 -0.000266326)
(0.000680081 0.00038219 -0.000286111)
(0.000784515 0.000212722 -0.000245213)
(0.00055054 8.63178e-05 -2.53116e-05)
(8.86408e-05 4.42065e-05 0.000338005)
(-0.000292465 -3.40119e-05 0.000558065)
(-0.000268544 -0.000324623 0.000291326)
(0.00045195 -0.000710053 -0.000407462)
(0.00150444 -0.000838739 -0.000779239)
(0.00170303 -0.000515845 -0.000257386)
(0.000750478 0.000105424 0.000522168)
(-0.000296697 0.000634681 0.000565644)
(-0.00076709 0.000858818 -0.000150297)
(-0.000860626 0.000853244 -0.000681024)
(-0.000739291 0.000624974 -0.000335685)
(-0.000387054 0.000123899 0.000626623)
(8.47554e-05 -0.000585291 0.00129576)
(0.000397809 -0.00104031 0.00112075)
(0.000490562 -0.000672649 0.00051323)
(0.000566918 0.000222788 -9.9021e-05)
(0.000787317 0.000719235 -0.000524358)
(0.00076076 0.000561937 -0.000598739)
(0.000324703 0.000197774 -0.00032527)
(-0.00015473 -3.36044e-05 7.73564e-05)
(-0.000414515 -5.50629e-05 0.000369447)
(-0.000497402 8.14778e-05 0.000425788)
(-0.000612436 0.000260868 0.000215565)
(-0.000950969 0.000330867 -0.000272621)
(-0.00145244 0.000197085 -0.00095421)
(-0.00165985 -7.93378e-05 -0.00148726)
(-0.00118699 -0.000307061 -0.00145464)
(-0.000338759 -0.000355241 -0.000836404)
(0.000298014 -0.000228642 -7.99142e-05)
(0.000517714 -6.28031e-05 0.000392819)
(0.000497978 -1.5373e-05 0.000565049)
(0.000359846 -0.000157236 0.00070122)
(0.000178927 -0.00028982 0.000719451)
(1.42021e-05 -0.000280041 0.000678816)
(-5.54129e-07 -2.5669e-06 0.000467254)
(0.000201967 0.000267228 0.000208855)
(0.00045811 0.000347824 -4.81288e-06)
(0.000621406 0.000309692 -0.000201363)
(0.000655094 0.000219958 -0.000354843)
(0.000504752 0.000154227 -0.000322717)
(0.000163226 0.000158777 -1.88614e-05)
(-0.000178691 0.000129245 0.000401595)
(-0.000218823 -0.000173499 0.000497299)
(0.000276078 -0.00072968 2.78987e-05)
(0.00122964 -0.0010592 -0.000512491)
(0.00175127 -0.000786291 -0.000378795)
(0.00118458 -0.000113859 0.000114689)
(0.000111841 0.000505179 6.18183e-05)
(-0.000716019 0.000889682 -0.00046338)
(-0.00106093 0.000996743 -0.000708269)
(-0.00093862 0.000710318 -0.000357922)
(-0.000570689 0.000128831 0.00050687)
(-3.76105e-05 -0.000487828 0.00141093)
(0.000554929 -0.000817545 0.00154478)
(0.000904663 -0.000571545 0.000891022)
(0.00108256 1.48292e-05 7.4487e-05)
(0.00103532 0.000398776 -0.000459754)
(0.000617092 0.000406201 -0.000587365)
(7.01144e-05 0.000233496 -0.000386258)
(-0.000288058 7.8777e-05 -2.92942e-05)
(-0.000373071 4.78254e-05 0.000308748)
(-0.000299211 0.000142471 0.000525569)
(-0.000275045 0.000276241 0.000543571)
(-0.000512438 0.00033268 0.000238229)
(-0.00105993 0.000213153 -0.000468285)
(-0.00159693 -7.59104e-05 -0.00132629)
(-0.00153109 -0.000350361 -0.00175518)
(-0.000756933 -0.000402726 -0.00141125)
(7.58991e-05 -0.000227662 -0.000570597)
(0.000431978 -1.99893e-06 0.000189232)
(0.000412413 7.47972e-05 0.00056838)
(0.000312675 -7.47055e-05 0.000676798)
(0.000219544 -0.000224786 0.000629977)
(0.000225968 -0.000297846 0.000449559)
(0.0003243 -9.8061e-05 0.000275068)
(0.000506053 0.00018161 0.000154037)
(0.000603469 0.000341271 0.000104561)
(0.000514096 0.000329806 4.56108e-05)
(0.00034149 0.00020198 -0.000107294)
(0.000208282 8.72337e-05 -0.000257298)
(0.000116007 9.02189e-05 -0.000195048)
(4.85797e-05 0.000152408 0.000156717)
(0.000116952 -1.48261e-05 0.000463933)
(0.000474256 -0.000595363 0.00030636)
(0.00111839 -0.00114661 -0.00016896)
(0.00156667 -0.00103431 -0.000378518)
(0.00114655 -0.000271793 -0.000271346)
(8.02425e-05 0.000596408 -0.00024502)
(-0.000817585 0.00113094 -0.000313991)
(-0.00105712 0.00112441 -0.000323428)
(-0.000788819 0.000648176 -0.000201013)
(-0.000478705 -4.02707e-05 0.000242756)
(-0.000273916 -0.000625218 0.00100106)
(0.000121081 -0.000827324 0.00143466)
(0.000654645 -0.000567322 0.00107899)
(0.000899872 -6.34071e-05 0.000246129)
(0.000716524 0.000332722 -0.000453518)
(0.000334961 0.000462421 -0.000688753)
(8.54379e-05 0.000379649 -0.000500375)
(7.18376e-05 0.000211178 -0.000120033)
(0.000150791 0.000123557 0.000270937)
(0.000199549 0.000155119 0.000585281)
(0.000106822 0.000219995 0.000757112)
(-0.000210298 0.000231312 0.000649974)
(-0.000747784 0.000134182 8.32802e-05)
(-0.00137139 -0.000107232 -0.000873573)
(-0.00168209 -0.000409039 -0.0016936)
(-0.00127394 -0.0005197 -0.00180388)
(-0.000425828 -0.000326576 -0.00115897)
(0.000176808 -3.16076e-06 -0.000235159)
(0.000314111 0.000164348 0.000452845)
(0.000256516 3.64522e-05 0.000702581)
(0.000208888 -0.000112374 0.000618076)
(0.000315639 -0.000250239 0.000299215)
(0.000515842 -0.000115907 1.78229e-05)
(0.000764458 0.000163661 -5.74414e-05)
(0.000858588 0.000364651 6.69545e-05)
(0.000664774 0.000346348 0.000223192)
(0.000293579 0.000156618 0.000215331)
(2.48049e-06 -4.51308e-05 3.08611e-05)
(-6.74358e-05 -9.51389e-05 -0.000113803)
(6.6133e-05 -2.31143e-07 1.32001e-05)
(0.000364646 -2.28569e-05 0.000298922)
(0.000786229 -0.000444314 0.00032708)
(0.00119931 -0.00100282 -1.77358e-05)
(0.00131124 -0.00099931 -0.000348028)
(0.000784973 -0.000216087 -0.000358519)
(-0.000158131 0.00073312 -0.000145087)
(-0.00084201 0.00119268 5.62078e-06)
(-0.000931229 0.00101989 -6.25625e-05)
(-0.000595601 0.000455371 -0.000144292)
(-0.000231358 -0.000193784 9.8881e-05)
(-0.00014463 -0.000691706 0.000688275)
(-0.000223188 -0.000827595 0.00111391)
(-0.000221478 -0.000544678 0.000922868)
(-0.000263014 -7.28094e-06 0.000231263)
(-0.000372512 0.000460089 -0.000428678)
(-0.000219516 0.000630616 -0.000655963)
(0.000341144 0.000486091 -0.000466105)
(0.000941196 0.000233982 -0.000123379)
(0.00117083 0.000104029 0.000194969)
(0.000979667 0.000176697 0.00046687)
(0.00057656 0.000288343 0.000697465)
(0.000117741 0.000240987 0.00079444)
(-0.000388739 4.43206e-05 0.000514197)
(-0.000958172 -0.000189867 -0.000300823)
(-0.00145666 -0.000446146 -0.00130826)
(-0.00153595 -0.000625491 -0.00182226)
(-0.00105855 -0.000519936 -0.00153065)
(-0.000422973 -0.000161327 -0.000694538)
(-2.69441e-05 0.000133361 0.000169178)
(0.000129942 0.000121024 0.000643763)
(0.000201503 -4.44705e-06 0.000452094)
(0.000396145 -8.25919e-05 0.000229454)
(0.000658347 -1.33642e-05 -3.47105e-05)
(0.00102544 0.000157276 -0.000109583)
(0.00119693 0.000299903 2.74358e-05)
(0.000854587 0.000292718 0.000242403)
(0.000199423 7.51422e-05 0.000346914)
(-0.000274849 -0.000210946 0.000240459)
(-0.00033783 -0.000329611 3.04846e-05)
(-5.44934e-05 -0.000243537 -3.13284e-05)
(0.000450612 -0.000177194 0.000124614)
(0.00100689 -0.000378409 0.0002221)
(0.00132298 -0.000703612 3.41664e-05)
(0.00113448 -0.000614938 -0.000200762)
(0.000453529 5.13957e-05 -0.000140378)
(-0.000366501 0.000756124 9.72134e-05)
(-0.000906336 0.00097757 0.000111914)
(-0.000950185 0.000690313 -0.000161263)
(-0.000596989 0.000171453 -0.000353186)
(-0.000174444 -0.000352123 -0.000144463)
(-4.23551e-05 -0.00068772 0.000411718)
(-0.000291164 -0.000702085 0.000865624)
(-0.000709868 -0.00035962 0.000787587)
(-0.00101952 0.000152593 0.000244105)
(-0.000920261 0.000499743 -0.000306964)
(-0.000198525 0.000470524 -0.00049137)
(0.000857278 0.000187865 -0.000322176)
(0.00152253 2.64143e-05 -6.06836e-05)
(0.00137061 0.000184893 0.000100875)
(0.000751492 0.000484623 0.000224946)
(0.000364648 0.000624851 0.000470752)
(0.000378748 0.000442148 0.00078966)
(0.000353928 3.13988e-05 0.000856662)
(-5.7905e-05 -0.000305531 0.000337584)
(-0.000726997 -0.000467128 -0.000664252)
(-0.00128951 -0.000563692 -0.00148998)
(-0.00142189 -0.000556401 -0.00157604)
(-0.00109887 -0.000334301 -0.000994583)
(-0.000583288 -4.47731e-05 -0.000203778)
(-0.000110658 7.28173e-05 0.000343767)
(-3.11376e-05 -4.79111e-05 -3.96789e-05)
(0.000552459 -3.85738e-05 -0.000196073)
(0.00111616 -1.66165e-05 -0.000309049)
(0.00139359 0.000110532 -0.000251552)
(0.00108353 0.0003721 -3.96912e-05)
(0.000339771 0.000528761 0.000274323)
(-0.000340567 0.000291495 0.000565782)
(-0.000656371 -0.000230719 0.000633553)
(-0.000565037 -0.000608103 0.000397474)
(-0.000125242 -0.000594044 5.39375e-05)
(0.000516189 -0.000387581 -8.79367e-05)
(0.00110073 -0.000298012 8.97403e-06)
(0.00130988 -0.000343017 0.000118665)
(0.000964874 -0.000223041 0.000167603)
(0.000225367 0.000151764 0.000243659)
(-0.000498576 0.000504448 0.000215883)
(-0.00091267 0.000615347 -6.72778e-05)
(-0.000925777 0.000480967 -0.000423276)
(-0.000595958 0.000160111 -0.000569315)
(-0.000146412 -0.00023789 -0.000404021)
(7.29597e-05 -0.00052644 -8.99507e-07)
(-0.000114472 -0.000525679 0.000393998)
(-0.000425468 -0.000202878 0.000506884)
(-0.000378436 0.000198166 0.000322099)
(0.000196029 0.000356983 0.000123162)
(0.00091313 0.000232077 9.02932e-05)
(0.00114477 0.000102668 9.2717e-05)
(0.0006341 0.000193616 -3.97156e-05)
(-0.000233241 0.000453749 -0.000242543)
(-0.000757676 0.000645119 -0.000174197)