/*--------------------------------*- C++ -*----------------------------------*\
| =========                 |                                                 |
| \\      /  F ield         | OpenFOAM: The Open Source CFD Toolbox           |
|  \\    /   O peration     | Version:  5.0                                   |
|   \\  /    A nd           | Web:      www.OpenFOAM.org                      |
|    \\/     M anipulation  |                                                 |
\*---------------------------------------------------------------------------*/
FoamFile
{
    version     2.0;
    format      ascii;
    class       volScalarField;
    location    "50.4676134421789371";
    object      UUU;
}
// * * * * * * * * * * * * * * * * * * * * * * * * * * * * * * * * * * * * * //

dimensions      [0 3 -3 0 0 0 0];

internalField   nonuniform List<scalar> 
60000
(
-3.51631e-13
9.06171e-12
7.96584e-11
9.72231e-11
1.93632e-11
1.45484e-14
-1.45262e-12
-1.12309e-11
-5.35729e-11
-9.44795e-11
-5.69623e-11
-1.07277e-11
-1.50189e-12
-2.62744e-12
-7.5105e-12
-5.39452e-12
-1.89076e-12
-6.49689e-12
-6.81228e-11
-4.53508e-10
-1.76995e-09
-4.08643e-09
-5.33639e-09
-5.7836e-09
-7.77107e-09
-1.09063e-08
-1.13445e-08
-6.51798e-09
-1.70596e-09
-2.98256e-10
-2.42464e-10
-6.0922e-10
-9.67978e-10
-5.80497e-10
-4.15066e-11
1.17664e-12
1.03107e-14
-2.96632e-11
-7.05072e-11
-2.6577e-11
-3.7582e-10
-7.86667e-13
7.55885e-11
2.7273e-10
1.2675e-10
8.63385e-13
-1.43123e-11
-1.24986e-10
-7.63781e-10
-2.16772e-09
-2.41904e-09
-1.04452e-09
-1.87657e-10
-5.26209e-11
-1.31304e-10
-4.35605e-10
-8.5981e-10
-1.51288e-09
-2.51046e-09
-4.18397e-09
-8.08468e-09
-1.83279e-08
-3.31516e-08
-5.25957e-08
-8.71594e-08
-1.32461e-07
-1.51688e-07
-1.1066e-07
-4.37393e-08
-9.50712e-09
-3.42543e-09
-5.97759e-09
-1.29254e-08
-1.50637e-08
-5.71608e-09
-1.47407e-10
1.45574e-12
-8.10968e-11
-1.26127e-09
-1.4691e-09
-2.15639e-09
-3.857e-10
-1.01319e-11
1.58051e-12
3.94854e-11
2.65796e-11
-2.29459e-15
-4.13856e-11
-4.80305e-10
-2.36748e-09
-3.99627e-09
-2.53698e-09
-5.78926e-10
-7.44575e-11
-1.0986e-10
-6.84449e-10
-1.69323e-09
-1.76063e-09
-1.14025e-09
-9.19997e-10
-1.47719e-09
-5.47836e-09
-1.63069e-08
-3.00874e-08
-4.7631e-08
-6.65569e-08
-7.23104e-08
-5.32994e-08
-2.28614e-08
-5.0701e-09
-9.88339e-10
-1.08669e-09
-3.54689e-09
-7.4451e-09
-5.92821e-09
-9.20857e-10
-1.32492e-13
-5.89818e-13
-8.44445e-10
-3.12558e-09
-9.3853e-10
-1.28594e-10
-3.24479e-19
1.96377e-11
1.32361e-10
3.62818e-10
2.32068e-10
1.5561e-11
-6.35338e-12
-4.66972e-10
-1.66557e-09
-9.85574e-10
-4.45633e-11
9.39259e-12
4.62408e-12
-8.08445e-11
-7.17823e-10
-3.23735e-10
-1.22647e-13
4.87316e-11
8.45569e-12
-1.80406e-10
-3.79684e-09
-9.08304e-09
-1.19735e-08
-1.27436e-08
-1.05828e-08
-5.64602e-09
-1.10036e-09
-8.24171e-13
2.10366e-10
3.1171e-10
1.48576e-11
-1.91817e-11
-1.09377e-10
-7.60088e-15
4.55867e-10
7.78051e-10
3.97831e-13
-6.45667e-10
-4.23071e-10
-8.62836e-11
6.44814e-12
1.9921e-10
5.80565e-10
1.40431e-09
1.76484e-09
8.50925e-10
1.30895e-10
-1.40215e-12
-5.61801e-10
-8.48958e-10
-2.2608e-11
1.41195e-10
2.20442e-10
-4.63329e-12
-6.73488e-10
-2.22818e-10
1.21311e-10
3.21763e-09
2.5505e-09
1.98494e-11
-1.6008e-09
-6.90277e-09
-7.18871e-09
-4.57712e-09
-2.67125e-09
-1.40123e-09
-2.81491e-10
5.79945e-12
1.21142e-09
3.24412e-09
2.51775e-09
9.57116e-10
2.40693e-10
2.36896e-10
1.83905e-09
4.06078e-09
1.07003e-09
-1.23513e-12
-8.79339e-11
-2.88795e-10
-6.81107e-12
4.23878e-11
3.49426e-10
1.23941e-09
2.5359e-09
2.62277e-09
1.51899e-09
3.18103e-10
-3.32991e-12
-5.75782e-10
-2.40707e-10
3.11163e-12
5.69602e-11
-7.49182e-11
-2.3259e-09
-1.25287e-09
3.36772e-11
8.69058e-09
1.53025e-08
1.35114e-09
-9.52338e-10
-9.18981e-09
-6.48298e-09
-1.96821e-09
-9.65502e-10
-9.0823e-10
-8.43651e-10
-2.91896e-10
2.36748e-14
5.02104e-10
2.13632e-09
3.51491e-09
3.17595e-09
1.53755e-09
1.19231e-09
2.53094e-09
2.10309e-09
1.27824e-10
2.3202e-12
-9.65072e-11
-7.75484e-11
-1.39421e-12
8.12537e-12
1.85284e-10
9.99869e-10
2.22147e-09
3.4378e-09
3.55275e-09
9.55359e-10
-1.35157e-17
-1.22404e-10
-2.1089e-11
-1.9854e-11
-1.37051e-09
-7.22836e-09
-3.87912e-09
-2.89526e-12
8.84313e-09
4.08066e-08
1.12724e-08
-6.98092e-11
-6.11205e-09
-2.6669e-09
-5.73067e-10
-5.72784e-10
-8.53618e-10
-1.00935e-09
-1.29809e-09
-1.16383e-09
-2.12234e-10
1.21239e-11
1.58137e-09
6.50726e-09
7.16135e-09
2.9319e-09
1.27679e-09
1.20278e-09
5.28458e-10
1.53573e-10
2.83754e-12
-1.29081e-12
-2.49933e-12
-7.67083e-12
-4.28343e-12
3.87824e-12
2.36597e-10
1.78545e-09
7.35684e-09
1.03976e-08
2.66524e-09
8.19634e-12
-7.92562e-11
-1.22568e-09
-8.74209e-09
-1.46443e-08
-6.04537e-09
-2.09362e-10
3.22285e-09
5.00914e-08
3.83734e-08
3.70949e-10
-6.92207e-10
-4.19213e-10
-2.83264e-10
-8.09698e-10
-1.23473e-09
-1.15077e-09
-1.4587e-09
-2.78482e-09
-3.88734e-09
-1.65709e-09
-9.39828e-13
1.99467e-09
9.43661e-09
8.10022e-09
2.37526e-09
6.66919e-10
4.22532e-10
3.12388e-10
3.36308e-10
1.86819e-10
3.54838e-11
-1.24814e-12
-1.82841e-10
-3.56302e-10
-9.97389e-11
8.79321e-12
3.13802e-09
2.17664e-08
2.25572e-08
2.04144e-09
-8.27648e-11
-5.79521e-09
-1.97543e-08
-1.76004e-08
-5.00527e-09
-4.14729e-10
2.38506e-10
2.54973e-08
5.88262e-08
9.04063e-09
4.71746e-11
-2.51243e-12
-2.12166e-10
-1.27015e-09
-1.74629e-09
-1.42755e-09
-1.69922e-09
-3.36835e-09
-6.32575e-09
-6.85379e-09
-2.15555e-09
-6.45391e-16
2.48475e-09
8.02662e-09
5.37771e-09
1.42198e-09
3.62862e-10
3.90203e-10
1.12878e-09
1.25338e-09
2.47376e-10
-6.69055e-15
-1.38945e-10
-4.82842e-10
-7.12298e-10
-3.2099e-10
3.52476e-11
1.13513e-08
4.6551e-08
1.51822e-08
-1.20006e-12
-9.18894e-09
-2.21929e-08
-1.32932e-08
-2.8402e-09
-2.25287e-10
6.26436e-15
4.08054e-09
3.79831e-08
2.77492e-08
4.62534e-09
1.24711e-10
-1.71274e-10
-1.62065e-09
-1.96277e-09
-1.51077e-09
-1.90878e-09
-4.00516e-09
-7.5642e-09
-8.76557e-09
-4.83107e-09
-5.23678e-10
4.3443e-11
2.19993e-09
4.51446e-09
2.68882e-09
6.55569e-10
2.61958e-10
1.21579e-09
1.53626e-09
1.50852e-10
-6.22087e-13
-2.49302e-11
-4.18874e-11
-1.64151e-10
-4.20197e-10
-8.74634e-11
1.06148e-09
3.06598e-08
3.69258e-08
6.47938e-10
-3.98418e-09
-1.44277e-08
-9.58495e-09
-2.21914e-09
-1.0651e-10
-5.69743e-13
1.33905e-10
9.1794e-09
2.86532e-08
1.51977e-08
1.00051e-09
-5.49158e-11
-1.10067e-09
-1.35073e-09
-1.12481e-09
-1.68923e-09
-4.31369e-09
-9.142e-09
-1.05723e-08
-5.53828e-09
-7.41682e-10
4.90678e-13
5.6201e-10
1.65535e-09
1.5217e-09
5.05047e-10
3.22006e-11
3.22389e-10
5.34173e-10
3.3028e-11
-1.06065e-15
1.71806e-12
1.41181e-11
2.86941e-14
-4.68258e-11
-1.60156e-10
1.83647e-12
7.66066e-09
3.36876e-08
7.08201e-09
-1.4118e-10
-6.67558e-09
-7.30885e-09
-2.09757e-09
-1.12237e-10
-2.14339e-14
2.7426e-12
9.55278e-10
1.1753e-08
1.26497e-08
1.26082e-09
-4.64067e-13
-2.09478e-10
-4.05555e-10
-5.31738e-10
-1.11336e-09
-3.56363e-09
-9.48466e-09
-1.34307e-08
-7.61699e-09
-9.6531e-10
1.25283e-12
5.43192e-10
9.31021e-10
5.15055e-10
1.11359e-10
8.72642e-13
1.16207e-12
8.89955e-12
2.27963e-12
1.49448e-11
2.28637e-10
5.55252e-10
1.94079e-10
1.76918e-14
-6.90742e-11
-9.9044e-12
1.24868e-09
1.75209e-08
1.35105e-08
9.46295e-11
-1.59136e-09
-3.70848e-09
-1.73094e-09
-3.45718e-10
-1.22431e-11
1.80702e-12
1.68675e-10
2.02188e-09
2.76712e-09
7.21006e-10
1.07371e-10
9.27516e-13
-2.70432e-11
-2.13782e-10
-6.17987e-10
-1.95626e-09
-6.45378e-09
-1.38504e-08
-1.18987e-08
-2.51564e-09
-3.3079e-12
3.17831e-10
7.90741e-10
4.67229e-10
8.32633e-11
7.82331e-12
-2.69454e-12
-8.59672e-12
2.35821e-14
1.13139e-10
8.52036e-10
1.51457e-09
6.67341e-10
1.14173e-11
-5.19848e-11
-8.4915e-11
1.09945e-10
8.52402e-09
1.68511e-08
2.27986e-09
-2.37086e-11
-1.25992e-09
-2.02394e-09
-1.41699e-09
-2.64849e-10
7.8372e-14
1.6659e-10
3.74737e-10
5.52319e-10
1.44705e-09
1.58452e-09
1.83016e-10
-4.36298e-12
-2.04474e-10
-3.80203e-10
-6.34943e-10
-2.1644e-09
-8.24926e-09
-1.46377e-08
-6.80809e-09
-3.00749e-10
4.37925e-11
4.24797e-10
4.18446e-10
1.78129e-10
2.35196e-11
5.87583e-14
-5.7041e-15
1.60776e-11
2.58731e-10
7.19422e-10
9.02059e-10
4.78172e-10
3.08855e-11
-8.99336e-12
-4.00945e-11
1.80768e-11
4.26118e-09
1.66716e-08
6.99371e-09
4.5791e-11
-8.22541e-10
-3.65708e-09
-2.91338e-09
-7.50909e-10
-3.88569e-12
3.6951e-10
2.1045e-09
3.8706e-09
3.84957e-09
1.01491e-09
6.63847e-12
-5.87437e-11
-1.74004e-10
-9.94645e-11
-6.13842e-11
-3.01301e-10
-2.82287e-09
-1.14446e-08
-1.27059e-08
-2.24217e-09
-1.85016e-14
2.30969e-10
2.52981e-10
1.11896e-10
3.33883e-11
3.15659e-11
8.59811e-11
3.62105e-10
7.18243e-10
5.01302e-10
1.557e-10
3.40477e-11
6.1805e-12
4.83211e-13
2.78738e-12
2.13201e-10
3.41854e-09
1.17426e-08
6.22452e-09
3.66218e-11
-1.27012e-09
-3.84975e-09
-1.85999e-09
-4.1163e-10
-8.03741e-11
8.49567e-13
6.87776e-10
2.26703e-09
1.34794e-09
1.59736e-10
2.22599e-12
6.0839e-13
8.24149e-12
2.40848e-11
6.7274e-12
-1.16762e-11
-9.09221e-10
-6.66063e-09
-1.46834e-08
-8.21639e-09
-5.29834e-10
5.61635e-12
1.02608e-10
6.15694e-11
2.40406e-11
7.88816e-11
3.50275e-10
1.26219e-09
2.0637e-09
1.15713e-09
1.38746e-10
1.08194e-13
-1.20756e-12
1.38907e-13
9.76527e-11
1.19303e-09
4.82008e-09
7.43479e-09
2.26404e-09
-9.67276e-14
-1.51602e-09
-2.75368e-09
-9.0831e-10
-6.24622e-11
-7.81399e-12
-2.66585e-11
-2.94205e-11
-4.45188e-11
-1.56373e-10
-6.93899e-11
4.07865e-11
2.03624e-09
4.97032e-09
3.36462e-09
8.09252e-10
1.88642e-11
-9.79425e-11
-2.09392e-09
-8.56138e-09
-1.19329e-08
-4.83549e-09
-4.14045e-10
-9.23217e-13
4.98947e-12
1.37464e-11
1.57431e-10
7.35935e-10
2.99133e-09
5.5586e-09
2.61216e-09
8.1242e-11
-3.93354e-11
-1.41139e-10
-4.3828e-12
1.61863e-10
2.58065e-09
6.98541e-09
5.36725e-09
5.76768e-10
-5.59966e-11
-2.00775e-09
-2.94295e-09
-9.28638e-10
-3.65188e-11
-1.2598e-13
-3.97978e-11
-8.4429e-10
-3.04173e-09
-2.89755e-09
-1.28094e-10
1.10329e-09
9.97325e-09
9.26701e-09
1.83966e-09
1.82427e-10
1.51202e-10
1.70008e-10
5.66683e-14
-7.61367e-10
-5.78309e-09
-9.2932e-09
-5.01956e-09
-9.22666e-10
-1.69315e-11
-4.54636e-12
3.28189e-10
3.68964e-09
8.59263e-09
5.09451e-09
2.98974e-10
-5.84172e-11
-8.26095e-10
-6.89682e-10
-2.67464e-11
2.36936e-10
3.47791e-09
7.1407e-09
3.60684e-09
1.23141e-10
-2.2033e-10
-2.16287e-09
-2.72129e-09
-9.19712e-10
-2.82725e-11
8.51764e-13
-1.11267e-12
-1.95883e-10
-2.41292e-10
1.93708e-12
1.76309e-09
4.90454e-09
1.31597e-09
-4.63405e-12
-1.18915e-09
-8.39282e-10
1.09201e-13
1.7197e-09
3.61733e-09
4.53845e-10
-9.15378e-11
-2.76413e-09
-5.50629e-09
-3.59364e-09
-8.00841e-10
-3.52268e-10
7.44877e-13
1.14275e-09
3.17906e-09
1.05242e-09
1.23801e-11
-9.33407e-12
-2.75556e-11
-1.68414e-11
1.73391e-15
2.48111e-10
2.47677e-09
4.45907e-09
1.71229e-09
1.76849e-11
-2.32342e-10
-1.38103e-09
-1.65545e-09
-6.60154e-10
-4.75796e-11
6.57471e-13
2.6315e-11
4.36636e-11
1.5047e-10
5.91724e-10
6.61412e-10
3.81774e-11
-1.32486e-10
-1.58964e-09
-2.8463e-09
-2.2319e-09
-4.03446e-10
6.66976e-11
3.50196e-09
4.39598e-09
4.18894e-10
-3.12296e-11
-9.4657e-10
-1.76119e-09
-1.38577e-09
-3.59409e-12
-3.05441e-14
1.94732e-12
8.37347e-12
4.2566e-12
2.81545e-12
2.03346e-11
1.31827e-10
2.42727e-10
1.80294e-10
1.82543e-10
2.993e-10
2.90352e-10
8.3722e-11
4.47114e-13
-2.42113e-11
-2.18494e-10
-5.69833e-10
-7.61815e-10
-4.65516e-10
-7.09164e-11
1.48063e-13
9.97862e-11
3.84556e-10
4.81293e-10
2.21669e-10
1.6432e-11
-2.03442e-12
-8.35591e-11
-3.63787e-10
-8.6631e-10
-1.06301e-09
-2.53371e-10
9.53866e-12
6.53254e-10
4.98659e-10
1.21881e-11
-1.41377e-11
-5.21513e-11
-2.18026e-11
1.43791e-10
3.09482e-10
9.27844e-11
1.46912e-13
-1.4542e-11
-1.88131e-11
6.11801e-16
8.38334e-11
3.83931e-10
2.78869e-10
2.12293e-11
-3.99081e-12
-4.75402e-11
-4.86255e-12
2.36254e-11
2.47078e-10
1.87741e-10
6.78399e-12
-9.43379e-12
-3.76185e-11
-1.22005e-12
3.90425e-11
4.12871e-10
7.27477e-10
4.3434e-10
6.72228e-11
-6.46588e-14
-1.26665e-10
-6.72566e-10
-1.26238e-09
-1.36756e-09
-8.68344e-10
-2.07021e-10
-5.63398e-13
3.70135e-11
1.03589e-10
3.75314e-11
1.44932e-12
1.47599e-14
7.41026e-12
1.41898e-12
8.71351e-11
2.07606e-10
1.26524e-10
3.83146e-11
3.61263e-11
1.69277e-10
6.89528e-10
1.13388e-09
5.18837e-10
9.55779e-12
-5.61761e-11
-1.66396e-10
-3.44864e-12
1.834e-10
1.51162e-09
1.98739e-09
8.51079e-10
1.50664e-10
2.25069e-11
1.41844e-11
1.78872e-11
4.32215e-12
-1.04008e-12
-8.72364e-11
-4.01053e-10
-7.26868e-10
-7.14435e-10
-4.63876e-10
-2.24574e-10
-1.03832e-10
-5.55437e-11
-2.21818e-11
-4.70184e-12
-1.26241e-12
-1.89535e-12
-7.15431e-12
-2.21932e-11
-3.30209e-11
-7.47899e-12
-2.19308e-11
-2.62769e-12
-3.5264e-13
-7.33238e-22
9.12891e-12
2.67069e-10
1.76583e-09
4.86006e-09
7.11839e-09
5.77413e-09
2.13705e-09
2.4592e-10
2.05455e-12
-2.76345e-15
3.29592e-12
7.07618e-11
1.82856e-10
1.14736e-10
8.09535e-12
-2.92094e-12
-7.55665e-11
-2.18086e-10
-3.22411e-10
-3.11947e-10
-2.12703e-10
-1.26002e-10
-9.49041e-11
-9.51571e-11
-7.43657e-11
-2.53653e-11
-9.86221e-13
1.13018e-12
1.53385e-11
9.90859e-12
-2.0437e-13
-8.02765e-11
-3.65725e-10
-5.33921e-10
-3.63068e-10
-1.23999e-10
-5.30105e-10
-4.54519e-10
-3.02832e-10
-4.30899e-11
1.95866e-11
1.0713e-09
4.29495e-09
6.01561e-09
3.86606e-09
1.51608e-09
6.10967e-10
3.94632e-10
3.86766e-10
3.72521e-10
2.52455e-10
1.02765e-10
2.63254e-11
2.4342e-12
-2.27964e-13
-2.76921e-11
-1.74193e-10
-4.69925e-10
-7.58909e-10
-7.21021e-10
-3.92168e-10
-1.47076e-10
-4.78651e-11
-1.05399e-11
-1.80663e-14
1.40992e-11
1.33097e-10
2.82552e-10
1.9413e-10
1.84491e-11
-5.3875e-12
-2.16944e-10
-7.2917e-10
-1.06739e-09
-9.7613e-10
-7.03723e-10
-4.31797e-12
-1.93353e-12
-9.39313e-13
-9.17205e-12
-6.16511e-11
-1.06119e-10
-7.35431e-11
-3.8475e-11
-4.7767e-11
-1.22668e-10
-2.55902e-10
-4.82884e-10
-9.02184e-10
-1.51049e-09
-2.09451e-09
-2.42155e-09
-2.45177e-09
-2.19726e-09
-1.65869e-09
-9.07021e-10
-6.09866e-10
-1.37039e-09
-3.27976e-09
-3.81759e-09
-3.24284e-09
-2.88305e-09
-2.32349e-09
-1.608e-09
-1.46016e-09
-2.46153e-09
-4.90999e-09
-7.20385e-09
-6.53647e-09
-2.76623e-09
-8.89891e-11
3.23774e-10
7.92566e-10
3.58756e-11
-7.55801e-15
-2.24058e-12
-1.36035e-11
-4.83463e-12
-1.1385e-11
-1.73829e-10
-1.13437e-09
-2.62606e-09
-2.60407e-09
-1.35011e-09
-6.35e-10
-7.91372e-10
-1.70797e-09
-3.38544e-09
-6.17378e-09
-1.10422e-08
-1.87088e-08
-2.80789e-08
-3.64379e-08
-4.09736e-08
-3.90175e-08
-2.36375e-08
-7.42889e-09
-4.48619e-09
-1.2889e-08
-2.92674e-08
-4.51825e-08
-5.78823e-08
-5.62634e-08
-4.06877e-08
-2.8468e-08
-3.03001e-08
-4.8705e-08
-7.48505e-08
-8.26103e-08
-5.49161e-08
-1.23878e-08
8.2505e-12
9.95293e-09
3.99986e-09
4.75885e-11
-4.82348e-12
-5.52117e-11
-2.17177e-11
-2.54813e-11
-1.83904e-10
-8.36627e-10
-1.98819e-09
-2.51535e-09
-1.50454e-09
-4.8177e-10
-3.2966e-10
-8.93991e-10
-2.23622e-09
-4.1195e-09
-7.26188e-09
-1.30116e-08
-1.9876e-08
-2.37762e-08
-2.36734e-08
-2.08416e-08
-1.18957e-08
-1.84147e-09
-8.14511e-11
-1.01984e-09
-1.09722e-08
-2.82162e-08
-4.0204e-08
-3.82763e-08
-2.57405e-08
-1.54936e-08
-1.33095e-08
-1.90796e-08
-3.03039e-08
-3.69948e-08
-2.86895e-08
-1.04864e-08
-1.29039e-10
4.99351e-09
1.37652e-08
1.21387e-09
-1.02893e-12
-3.14033e-11
-1.41022e-11
-3.59768e-12
-3.62504e-11
-1.74415e-10
-3.38988e-10
-3.93316e-10
-1.63221e-10
-8.38173e-12
-1.49912e-13
-3.46282e-11
-4.0474e-10
-1.07678e-09
-2.29801e-09
-5.0182e-09
-7.70609e-09
-6.78602e-09
-4.03666e-09
-1.98766e-09
-3.37067e-10
8.85662e-11
3.19221e-09
6.91288e-10
-5.91549e-10
-7.2318e-09
-1.02924e-08
-6.7798e-09
-2.37155e-09
-4.89236e-10
-1.93667e-10
-5.0571e-10
-1.67621e-09
-2.74855e-09
-1.91632e-09
-2.35046e-10
2.51856e-10
1.22896e-08
3.32343e-08
9.95271e-09
8.20406e-11
3.06007e-14
-1.22769e-11
-6.97217e-13
-8.77154e-12
-7.13015e-11
-9.37236e-11
-3.20022e-11
-5.59017e-13
5.73103e-12
3.78572e-11
2.05739e-12
-6.13559e-11
-5.21725e-10
-1.55094e-09
-4.20173e-09
-6.4745e-09
-4.06798e-09
-1.29824e-09
-3.43134e-10
-1.34971e-12
1.7097e-09
1.77526e-08
1.10899e-08
7.77084e-14
-3.9011e-09
-6.28468e-09
-2.91588e-09
-5.82318e-10
-1.96145e-11
7.05788e-14
-1.5159e-13
-4.94602e-11
-1.53161e-10
-4.84326e-11
2.68632e-12
1.96347e-09
2.44483e-08
6.75899e-08
4.08567e-08
3.32709e-09
5.69017e-10
-5.42686e-12
-1.98693e-11
-5.98281e-11
-2.64451e-10
-2.82822e-10
-3.16666e-11
9.40647e-12
1.13215e-10
8.95749e-11
1.63655e-11
-1.61219e-11
-5.90459e-10
-2.56441e-09
-7.03325e-09
-9.11304e-09
-3.86028e-09
-7.92155e-10
-2.74703e-10
-1.67715e-11
1.35054e-09
2.63585e-08
2.896e-08
3.24464e-10
-2.91235e-09
-5.55931e-09
-2.29003e-09
-8.276e-10
-3.46991e-10
-1.56246e-10
-1.52072e-10
-2.91021e-10
-2.60984e-10
-1.65512e-11
3.34074e-11
1.1588e-09
1.54972e-08
6.73214e-08
7.74778e-08
2.18774e-08
9.49674e-09
6.13756e-11
-5.33046e-11
-3.61485e-10
-1.13251e-09
-1.35657e-09
-3.28386e-10
8.98293e-12
8.84989e-10
5.68246e-10
2.94751e-11
-1.13115e-11
-7.3744e-10
-4.42223e-09
-1.1259e-08
-1.05392e-08
-2.5995e-09
-2.84186e-10
-1.47121e-10
-7.36165e-11
5.86513e-10
2.877e-08
4.76362e-08
2.0425e-09
-9.65648e-10
-2.16798e-09
-7.59151e-10
-5.37816e-10
-9.12588e-10
-1.72395e-09
-3.02417e-09
-4.2854e-09
-3.19626e-09
-4.78577e-10
1.37511e-11
1.21722e-09
7.34276e-09
3.63843e-08
7.2823e-08
5.26043e-08
3.78068e-08
4.14542e-09
7.22096e-15
-6.4956e-10
-3.09817e-09
-4.9682e-09
-2.83632e-09
-5.82317e-11
1.24107e-09
4.12434e-09
4.00084e-10
-2.58979e-11
-1.39438e-09
-7.43483e-09
-1.49644e-08
-8.87889e-09
-1.38213e-09
-8.43168e-11
-4.10503e-11
-6.22928e-11
2.31106e-10
2.53221e-08
5.75508e-08
5.58341e-09
-2.35353e-11
-2.54853e-10
-1.36175e-10
-2.96213e-10
-1.01542e-09
-2.82273e-09
-6.60512e-09
-1.21597e-08
-1.37652e-08
-5.72842e-09
-1.02512e-10
7.27056e-10
5.11809e-09
1.52442e-08
3.80676e-08
5.72574e-08
5.89275e-08
3.1072e-08
1.24133e-09
-2.26297e-10
-4.60931e-09
-1.18043e-08
-1.16137e-08
-2.4472e-09
6.77758e-11
8.3406e-09
5.8048e-09
1.17115e-12
-2.64675e-09
-1.24744e-08
-1.63776e-08
-5.90425e-09
-4.91172e-10
-2.93381e-11
-1.49681e-11
-6.99455e-12
1.77984e-10
1.83632e-08
5.47647e-08
1.12821e-08
1.2707e-10
-3.21775e-14
-1.92094e-11
-2.5694e-10
-1.12838e-09
-3.19752e-09
-7.76434e-09
-1.55858e-08
-2.13091e-08
-1.47444e-08
-2.33112e-09
1.63144e-11
3.01886e-09
7.44435e-09
1.31288e-08
3.04647e-08
4.56604e-08
8.18476e-08
1.69384e-08
-2.87152e-13
-7.21082e-09
-2.06309e-08
-1.73621e-08
-6.00581e-09
-9.38694e-11
3.21906e-09
1.64025e-08
2.11723e-09
-9.69248e-10
-1.35003e-08
-1.37051e-08
-2.9259e-09
-2.279e-10
-8.53455e-11
-3.62641e-11
3.28531e-13
4.20462e-10
1.19199e-08
4.23686e-08
1.84174e-08
2.12397e-09
1.07126e-10
-6.37937e-12
-3.49634e-10
-1.15364e-09
-2.79537e-09
-6.91109e-09
-1.51823e-08
-2.30321e-08
-1.8613e-08
-5.2483e-09
-3.92437e-11
8.33088e-10
3.62909e-09
3.88949e-09
8.53302e-09
2.04551e-08
1.05816e-07
4.92723e-08
4.50654e-11
-1.06997e-08
-2.66068e-08
-1.49887e-08
-3.55148e-09
-2.57987e-10
2.06949e-10
9.8557e-09
1.12738e-08
1.61249e-11
-4.57174e-09
-7.33153e-09
-2.13079e-09
-5.89609e-10
-4.56424e-10
-1.11301e-10
1.78534e-11
1.17122e-09
8.57888e-09
2.89925e-08
2.52594e-08
6.96972e-09
2.81057e-10
-4.57301e-11
-5.58851e-10
-1.01589e-09
-1.95295e-09
-4.65589e-09
-1.09189e-08
-1.9755e-08
-1.90491e-08
-6.39363e-09
-1.5323e-10
3.01146e-10
1.86085e-09
1.15137e-09
1.1658e-09
5.05619e-09
6.93311e-08
5.72196e-08
3.69469e-10
-7.73893e-09
-2.02563e-08
-8.71438e-09
-9.87844e-10
-9.45774e-12
4.89528e-11
2.28139e-09
1.00348e-08
2.6226e-09
-1.51872e-10
-3.76329e-09
-3.19031e-09
-1.51178e-09
-7.91002e-10
-1.62199e-10
1.85783e-11
1.82534e-09
8.20884e-09
2.12594e-08
2.40919e-08
6.38717e-09
4.95916e-11
-1.39031e-10
-4.95162e-10
-7.54925e-10
-1.25097e-09
-2.26443e-09
-4.84209e-09
-1.12722e-08
-1.63307e-08
-8.00446e-09
-4.1748e-10
1.58257e-10
1.64979e-09
8.11217e-10
1.24464e-10
8.37044e-10
1.67509e-08
2.27021e-08
4.58692e-10
-2.09982e-09
-5.9992e-09
-1.9376e-09
-6.87154e-11
9.66886e-12
2.71924e-10
1.5644e-09
5.96507e-09
5.38739e-09
2.56219e-11
-1.56586e-09
-3.23531e-09
-1.7169e-09
-7.37907e-10
-2.39851e-10
1.453e-13
1.41689e-09
7.82655e-09
1.40362e-08
1.02381e-08
1.46506e-09
1.18385e-11
-7.58046e-12
-1.74328e-10
-7.48005e-10
-1.16807e-09
-8.79079e-10
-8.00045e-10
-2.49821e-09
-8.32456e-09
-9.00829e-09
-1.72352e-09
2.77689e-13
9.52098e-10
1.35226e-09
2.40208e-10
5.10315e-10
1.20487e-09
1.20796e-09
1.76877e-11
-6.00733e-11
-1.1622e-10
-2.17426e-11
-3.75155e-15
2.58919e-11
4.26116e-10
2.63624e-09
7.00743e-09
7.57015e-09
7.07789e-10
-2.34537e-10
-1.78993e-09
-1.26316e-09
-7.26927e-10
-5.08138e-10
-2.56921e-11
5.97689e-10
6.0039e-09
7.74198e-09
3.76572e-09
1.44272e-09
5.44462e-10
1.82926e-12
-5.42594e-10
-2.6829e-09
-2.32376e-09
-4.53182e-10
-7.11271e-12
-1.24873e-11
-1.15228e-09
-5.72077e-09
-3.82929e-09
-2.30886e-10
6.40649e-11
1.0387e-09
1.02746e-09
6.60946e-10
1.2123e-10
9.23202e-12
9.22118e-12
7.30798e-11
1.14749e-10
2.3017e-11
-1.70641e-16
-8.27699e-15
1.57493e-10
3.59067e-09
1.16138e-08
1.15753e-08
2.29057e-09
-4.71112e-13
-6.16965e-10
-1.07874e-09
-1.22579e-09
-1.16354e-09
-2.59521e-10
1.1807e-10
5.3281e-09
9.59973e-09
6.37969e-09
2.98177e-09
1.73075e-10
-3.62644e-10
-4.01682e-09
-4.98192e-09
-1.97608e-09
-1.71909e-10
2.84571e-12
1.00591e-10
-2.07592e-13
-1.36908e-09
-3.77228e-09
-1.16347e-09
-8.28312e-12
1.5604e-10
8.63951e-10
6.52526e-10
2.12746e-10
4.55116e-11
1.02259e-10
3.09592e-10
3.22532e-10
6.1056e-11
-2.19397e-13
-1.78427e-11
2.27892e-11
3.76386e-09
1.75131e-08
1.71066e-08
3.93457e-09
1.42592e-11
-4.02406e-10
-2.08125e-09
-2.91879e-09
-1.78567e-09
-3.55552e-10
3.07222e-12
2.08208e-09
7.81209e-09
5.3331e-09
3.65867e-10
-3.13806e-10
-4.79862e-09
-5.1114e-09
-9.86834e-10
-9.7492e-12
1.77133e-12
3.66004e-12
2.73527e-11
1.84543e-11
-1.1842e-10
-2.35151e-09
-2.46628e-09
-3.60283e-10
2.14116e-13
3.10008e-10
3.14712e-10
3.49131e-10
1.70934e-10
1.70149e-10
2.83431e-10
3.09177e-10
9.80473e-11
3.62801e-14
-1.76038e-11
4.29078e-12
3.26336e-09
2.20562e-08
2.42932e-08
5.1449e-09
2.63378e-12
-1.42521e-09
-5.23619e-09
-4.58877e-09
-1.24729e-09
-4.27522e-11
1.11293e-11
2.70853e-10
5.24662e-10
2.81278e-11
-5.75268e-10
-6.30782e-09
-6.4942e-09
-4.60946e-10
3.16808e-10
3.33526e-09
1.98325e-09
8.01242e-11
-6.82983e-13
-8.04075e-16
-3.9885e-12
-7.78275e-10
-3.1279e-09
-2.00855e-09
-1.94929e-10
7.49959e-12
1.04942e-12
4.73175e-11
8.064e-11
2.19653e-10
6.09688e-10
6.13935e-10
1.34498e-10
2.3373e-13
-9.5181e-12
6.08453e-13
1.78759e-09
1.7517e-08
2.43762e-08
4.70291e-09
-4.43101e-12
-3.47367e-09
-6.67727e-09
-3.11492e-09
-2.91044e-10
1.7819e-13
5.15446e-11
7.74342e-12
-3.70094e-11
-1.29235e-09
-5.6466e-09
-6.00857e-09
-5.50311e-10
3.38872e-10
5.16732e-09
5.52437e-09
2.11567e-09
5.87113e-10
6.94165e-11
6.9361e-12
3.97816e-12
-3.10208e-11
-1.33198e-09
-3.07349e-09
-1.53797e-09
-1.18864e-10
-5.25432e-10
-4.07428e-11
9.12239e-12
4.36699e-10
8.35445e-10
2.20368e-10
2.99133e-13
-2.3896e-11
-2.09729e-11
3.92281e-12
1.03941e-09
7.34649e-09
9.7497e-09
1.62497e-09
-1.00249e-11
-1.0509e-09
-1.03888e-09
-2.47473e-10
-2.58827e-11
-4.19006e-12
-1.27163e-11
-1.6668e-10
-1.14344e-09
-2.74248e-09
-1.47618e-09
-2.90298e-12
9.36976e-10
2.57856e-09
4.99109e-10
-1.07557e-13
-3.99439e-12
3.36356e-10
3.72505e-09
3.13209e-09
7.72089e-10
5.01642e-11
-4.06484e-11
-1.01974e-09
-2.17993e-09
-1.60896e-09
-1.32279e-09
-3.71736e-10
-7.98164e-12
1.15614e-11
3.12946e-11
4.10717e-12
4.80879e-16
-3.72359e-14
1.14631e-12
1.04832e-10
9.17334e-10
2.42121e-09
2.01796e-09
4.0002e-10
8.01012e-12
-9.2192e-13
-1.84237e-11
-5.2458e-11
-6.45442e-11
-3.89945e-11
-3.19376e-11
-1.00355e-10
-2.89934e-10
-1.82581e-10
-2.13074e-15
2.64581e-10
4.50967e-10
4.01166e-12
-4.12126e-10
-2.3498e-09
-1.6483e-09
-5.54866e-13
4.0989e-09
1.60231e-08
7.74166e-09
5.80168e-10
-5.75643e-12
-7.31247e-10
-1.99769e-09
-2.1386e-09
-1.70554e-10
-7.50254e-11
-6.08682e-11
-5.49599e-11
-2.82978e-11
-2.96505e-12
7.36743e-14
1.273e-11
8.19557e-11
3.11589e-10
7.82809e-10
1.09353e-09
7.91304e-10
3.37547e-10
1.07174e-10
1.16143e-11
-1.62608e-12
-1.06644e-10
-2.70334e-10
-1.49114e-10
-1.13866e-11
1.15698e-13
7.34084e-12
2.61292e-11
7.04059e-11
6.74683e-11
2.3687e-12
-4.67716e-11
-7.12337e-10
-1.97098e-09
-1.93666e-09
-3.02087e-10
1.63711e-10
5.89934e-09
8.44333e-09
1.4135e-09
-5.41484e-13
-6.69842e-10
-1.16928e-09
-5.5922e-10
4.73051e-12
3.92869e-11
2.85663e-12
-1.74697e-11
-2.18579e-10
-3.88118e-10
-1.51629e-10
-3.67386e-14
1.41998e-10
5.18096e-10
3.96778e-10
1.11906e-10
2.05711e-11
2.82141e-11
1.7685e-10
4.33667e-10
2.78788e-10
4.59359e-11
2.60913e-12
1.68105e-12
1.38324e-11
5.62731e-11
8.98223e-11
5.08509e-11
2.81886e-12
-1.23709e-11
-3.39207e-10
-1.34761e-09
-2.12966e-09
-1.72158e-09
-6.02467e-10
-2.88101e-11
2.38779e-11
5.33274e-10
1.09631e-09
4.13997e-10
5.84075e-12
-1.60978e-11
-5.12042e-11
-6.57425e-12
2.96643e-12
1.73322e-10
3.24953e-10
9.59116e-11
4.21885e-14
-2.50644e-11
-2.05905e-11
5.47937e-12
6.28286e-10
2.02652e-09
1.07505e-09
5.45678e-11
-2.81184e-13
1.06645e-13
1.63386e-10
8.20741e-10
6.83763e-10
1.4513e-10
1.12483e-11
3.05858e-12
4.86915e-12
1.05821e-12
-2.47334e-12
-1.04523e-10
-4.56284e-10
-7.38307e-10
-6.58454e-10
-4.58939e-10
-3.12417e-10
-1.3822e-10
-1.11433e-11
1.76189e-12
3.61156e-11
2.96572e-11
1.16487e-12
-7.58821e-12
-1.16421e-10
-2.85814e-10
-2.3479e-10
-3.21894e-11
-5.34029e-11
-1.00593e-12
1.63738e-13
2.93449e-12
1.88274e-11
9.89345e-11
3.20948e-10
8.33489e-10
2.33682e-09
5.41948e-09
6.24789e-09
2.63216e-09
3.24317e-10
7.20763e-12
3.51897e-15
-1.25474e-15
-4.78004e-13
-1.57133e-11
-9.4089e-11
-2.08948e-10
-2.41762e-10
-1.69023e-10
-6.31488e-11
-5.28426e-12
2.02194e-13
5.05768e-12
2.53957e-13
-9.07414e-12
-6.67234e-11
-3.39992e-11
1.46926e-14
7.66269e-11
1.8976e-10
3.3976e-11
-4.15698e-12
-2.63261e-10
-8.92734e-10
-1.24272e-09
-9.25272e-10
-3.54129e-10
-1.65534e-09
-1.03427e-09
-3.02155e-10
-9.18003e-13
2.3669e-10
1.7922e-09
3.08703e-09
2.28575e-09
9.81541e-10
3.96359e-10
2.50918e-10
1.89913e-10
1.01939e-10
4.41512e-11
2.95961e-11
4.30989e-11
6.57717e-11
5.41865e-11
1.00303e-11
-2.82359e-13
-6.0279e-11
-2.70173e-10
-3.46781e-10
-1.517e-10
-1.6601e-11
-8.80804e-14
-2.45675e-16
-3.25455e-13
-2.73849e-13
1.59056e-12
7.01741e-11
2.83218e-10
3.2211e-10
7.6552e-11
-5.20793e-13
-2.44695e-10
-1.09589e-09
-1.92884e-09
-2.23142e-09
-2.07512e-09
-4.26119e-11
-6.14411e-12
-3.46546e-12
-4.59573e-11
-2.15606e-10
-3.48345e-10
-3.16663e-10
-2.19231e-10
-1.69462e-10
-2.296e-10
-5.09917e-10
-1.17065e-09
-2.22282e-09
-3.3422e-09
-4.17898e-09
-4.68506e-09
-5.13139e-09
-5.5852e-09
-5.39763e-09
-3.2436e-09
-7.11016e-10
-8.17503e-11
-1.21974e-10
-3.08375e-10
-2.41878e-10
-1.30184e-10
-1.28852e-10
-3.21175e-10
-1.15064e-09
-3.29295e-09
-5.88351e-09
-5.97961e-09
-3.08232e-09
-5.38156e-10
-4.46233e-13
1.18262e-10
1.79654e-10
1.54628e-11
-1.10628e-12
-4.11581e-11
-1.20351e-10
-4.41917e-11
-1.3932e-10
-9.79181e-10
-3.03191e-09
-4.63108e-09
-4.72891e-09
-3.87006e-09
-3.13006e-09
-3.24918e-09
-5.057e-09
-9.72107e-09
-1.80164e-08
-2.87945e-08
-3.9854e-08
-4.9438e-08
-5.94003e-08
-7.32409e-08
-8.6214e-08
-7.11032e-08
-2.35675e-08
-1.44203e-09
-1.32227e-10
-1.41334e-09
-4.64805e-09
-6.11392e-09
-6.48111e-09
-8.59631e-09
-1.72659e-08
-3.90058e-08
-6.95345e-08
-8.26155e-08
-5.89298e-08
-2.13588e-08
-2.07465e-09
2.56272e-11
1.81771e-09
7.92681e-10
8.21931e-13
-9.4822e-11
-6.80729e-11
-3.99243e-11
-1.13612e-10
-7.53664e-10
-2.40603e-09
-3.98034e-09
-4.51511e-09
-4.38462e-09
-4.1136e-09
-3.84787e-09
-4.20281e-09
-6.29904e-09
-1.11141e-08
-1.78985e-08
-2.38571e-08
-2.62739e-08
-2.70369e-08
-3.11988e-08
-4.0078e-08
-4.04418e-08
-1.71846e-08
-6.5755e-10
2.23623e-11
-3.84242e-11
-3.5038e-09
-8.47577e-09
-8.45582e-09
-7.46102e-09
-9.99642e-09
-1.94223e-08
-3.52356e-08
-4.51328e-08
-3.5901e-08
-1.53707e-08
-2.36047e-09
-1.01521e-13
1.46079e-09
3.46802e-09
6.04623e-10
-5.12006e-13
-1.28761e-13
-3.67634e-12
-7.02031e-12
-1.18832e-10
-6.1369e-10
-1.22254e-09
-1.487e-09
-1.4957e-09
-1.3578e-09
-1.03402e-09
-8.25626e-10
-1.15941e-09
-2.61409e-09
-5.09825e-09
-6.44216e-09
-4.9389e-09
-2.7756e-09
-2.22859e-09
-3.61097e-09
-4.95564e-09
-1.40252e-09
1.28212e-10
7.0386e-09
2.06156e-09
-1.49539e-10
-2.57451e-09
-1.8408e-09
-5.65341e-10
-3.7587e-10
-1.18988e-09
-3.92773e-09
-6.50964e-09
-4.6927e-09
-9.27893e-10
2.05597e-13
1.68315e-09
9.79352e-09
1.63822e-08
9.05441e-09
5.84774e-10
2.03479e-10
1.59615e-15
-1.11314e-15
-1.17457e-11
-1.82227e-10
-5.22733e-10
-7.80506e-10
-9.39254e-10
-9.15395e-10
-5.53002e-10
-2.63674e-10
-2.73808e-10
-8.88937e-10
-2.50566e-09
-3.28671e-09
-1.56222e-09
-2.12551e-10
-3.66397e-11
-3.15713e-10
-1.57063e-09
-5.22982e-10
8.04746e-10
2.49798e-08
1.8383e-08
2.89731e-11
-1.34114e-09
-9.68689e-10
-4.63844e-11
-5.4344e-15
-1.2172e-11
-4.34975e-10
-1.49755e-09
-1.22464e-09
-8.72788e-11
2.41836e-10
6.84018e-09
2.68858e-08
4.44437e-08
3.87835e-08
1.07232e-08
5.60332e-09
2.63005e-11
-2.20594e-14
-1.06811e-11
-1.55098e-10
-4.80298e-10
-7.99587e-10
-1.24047e-09
-1.78315e-09
-1.49445e-09
-6.80942e-10
-4.23828e-10
-8.94526e-10
-2.23958e-09
-2.47179e-09
-6.19991e-10
-7.72035e-13
1.61737e-11
-2.25927e-11
-1.44392e-09
-1.47444e-09
7.93193e-11
2.49828e-08
3.90954e-08
9.15212e-10
-1.22292e-09
-2.00431e-09
-2.4744e-10
-4.63141e-12
-1.14555e-11
-3.06767e-10
-1.41415e-09
-1.70812e-09
-3.81204e-10
9.71131e-12
3.07615e-09
2.09806e-08
5.17166e-08
7.23516e-08
5.16964e-08
4.5094e-08
1.30002e-09
-1.88153e-14
-4.38745e-11
-2.5855e-10
-6.00703e-10
-8.77587e-10
-1.28499e-09
-2.31559e-09
-3.21392e-09
-2.18134e-09
-1.19418e-09
-1.36722e-09
-2.04669e-09
-1.2696e-09
-4.76678e-11
7.42801e-11
1.5426e-10
-2.55582e-12
-9.53007e-10
-1.09843e-09
5.29203e-11
2.27314e-08
5.07236e-08
3.15621e-09
-5.12074e-10
-1.9794e-09
-5.69408e-10
-1.35954e-10
-2.44174e-10
-1.23e-09
-3.71667e-09
-5.07909e-09
-2.35645e-09
-6.65384e-11
5.04481e-10
9.14308e-09
3.47831e-08
7.61845e-08
1.1578e-07
1.52532e-07
1.73349e-08
2.32411e-11
-1.31183e-10
-5.55418e-10
-9.37752e-10
-1.13524e-09
-1.13154e-09
-1.32078e-09
-2.37423e-09
-3.60948e-09
-3.85668e-09
-4.01783e-09
-3.32599e-09
-7.13928e-10
4.26868e-12
7.09041e-10
2.54523e-10
-9.91233e-12
-4.98601e-10
-1.84964e-10
7.03242e-10
2.79002e-08
4.77625e-08
3.99322e-09
-8.51622e-11
-8.45028e-10
-4.5423e-10
-3.75087e-10
-1.05414e-09
-3.65399e-09
-9.09207e-09
-1.39559e-08
-1.06292e-08
-2.17265e-09
4.75536e-14
2.43068e-09
1.52591e-08
4.95485e-08
1.4286e-07
2.60392e-07
9.08234e-08
1.52402e-09
-1.11152e-10
-1.11441e-09
-1.6405e-09
-1.39057e-09
-1.01951e-09
-5.23666e-10
-4.46509e-10
-1.7774e-09
-6.18052e-09
-1.10638e-08
-8.41088e-09
-1.08236e-09
6.1446e-11