/*--------------------------------*- C++ -*----------------------------------*\
| =========                 |                                                 |
| \\      /  F ield         | OpenFOAM: The Open Source CFD Toolbox           |
|  \\    /   O peration     | Version:  5.0                                   |
|   \\  /    A nd           | Web:      www.OpenFOAM.org                      |
|    \\/     M anipulation  |                                                 |
\*---------------------------------------------------------------------------*/
FoamFile
{
    version     2.0;
    format      ascii;
    class       volScalarField;
    location    "50.4676134421789371";
    object      UUUMean;
}
// * * * * * * * * * * * * * * * * * * * * * * * * * * * * * * * * * * * * * //

dimensions      [0 3 -3 0 0 0 0];

internalField   nonuniform List<scalar> 
60000
(
4.06267e-13
1.45435e-11
5.55897e-11
5.11221e-11
8.43301e-12
6.17298e-15
-5.82518e-13
-4.65949e-12
-2.23733e-11
-3.57326e-11
-1.78878e-11
-2.79004e-12
-4.82794e-13
-1.1545e-12
-2.91972e-12
-1.61179e-12
-4.46606e-13
-1.66349e-12
-2.61813e-11
-2.28287e-10
-1.00562e-09
-2.3615e-09
-3.04275e-09
-3.22949e-09
-4.30659e-09
-5.89085e-09
-5.65942e-09
-2.76613e-09
-5.96251e-10
-1.08495e-10
-1.12733e-10
-2.9969e-10
-4.42921e-10
-2.16406e-10
-1.07619e-11
1.30097e-11
2.21188e-13
-1.51915e-11
-2.65831e-11
-7.51529e-12
-1.19531e-10
7.49666e-12
1.15673e-10
2.04955e-10
7.94164e-11
1.33683e-12
-6.14205e-12
-4.88581e-11
-3.10044e-10
-8.58738e-10
-9.03102e-10
-3.58938e-10
-6.67328e-11
-2.47057e-11
-5.3827e-11
-1.65545e-10
-3.25254e-10
-5.89368e-10
-1.01659e-09
-1.73829e-09
-3.45882e-09
-7.97957e-09
-1.46173e-08
-2.3868e-08
-4.07803e-08
-6.27318e-08
-7.10852e-08
-4.99868e-08
-1.84163e-08
-3.82764e-09
-1.49906e-09
-2.6604e-09
-5.71746e-09
-6.40351e-09
-2.20951e-09
-7.29698e-11
3.23561e-11
-4.76464e-11
-4.97243e-10
-5.23902e-10
-8.21009e-10
-1.38062e-10
-6.70827e-12
4.16133e-12
3.31961e-11
1.99632e-11
-1.02429e-13
-1.59581e-11
-1.98389e-10
-9.79357e-10
-1.58889e-09
-9.52029e-10
-1.97697e-10
-2.52041e-11
-4.26037e-11
-2.7593e-10
-6.5979e-10
-6.57636e-10
-4.12007e-10
-3.32019e-10
-5.52278e-10
-2.20186e-09
-6.59232e-09
-1.21026e-08
-1.92012e-08
-2.66254e-08
-2.83499e-08
-2.03472e-08
-8.43077e-09
-1.78667e-09
-3.47266e-10
-4.07954e-10
-1.40286e-09
-2.97552e-09
-2.3122e-09
-3.33507e-10
-7.98859e-13
-2.62876e-12
-3.72334e-10
-1.27149e-09
-3.75344e-10
-4.5289e-11
1.85176e-14
9.56981e-12
6.74343e-11
1.78806e-10
1.05997e-10
6.42154e-12
-3.45264e-12
-2.17062e-10
-7.02372e-10
-3.74876e-10
-1.28717e-11
7.17506e-12
1.88905e-12
-3.87437e-11
-2.91736e-10
-1.10101e-10
2.42104e-13
2.56006e-11
3.1412e-12
-9.39948e-11
-1.66143e-09
-3.7151e-09
-4.79318e-09
-4.98908e-09
-3.98351e-09
-1.9892e-09
-3.33119e-10
2.21329e-12
1.49314e-10
1.68725e-10
8.41728e-12
-7.11445e-12
-3.88638e-11
4.34308e-13
2.43681e-10
3.35237e-10
7.8686e-14
-2.97941e-10
-1.78732e-10
-2.87469e-11
5.27228e-12
9.3176e-11
2.70809e-10
6.58028e-10
7.94405e-10
3.58133e-10
4.96762e-11
-1.77096e-12
-2.67093e-10
-3.42899e-10
-6.15302e-12
7.69455e-11
8.79609e-11
-4.21095e-12
-2.80358e-10
-6.7523e-11
1.05105e-10
1.49517e-09
9.75426e-10
4.41378e-12
-8.31822e-10
-2.98627e-09
-2.95321e-09
-1.84957e-09
-1.07091e-09
-5.45092e-10
-9.29017e-11
1.30711e-11
6.68349e-10
1.54586e-09
1.12662e-09
4.08446e-10
9.92466e-11
1.14815e-10
8.94983e-10
1.79297e-09
4.11456e-10
-2.18747e-12
-5.08918e-11
-1.16672e-10
-2.02291e-12
2.09102e-11
1.61456e-10
5.83343e-10
1.16425e-09
1.1548e-09
6.35658e-10
1.16302e-10
-4.94874e-12
-2.70388e-10
-9.01625e-11
2.80434e-12
2.02952e-11
-5.10776e-11
-1.02069e-09
-4.37589e-10
5.78326e-11
4.30994e-09
6.15227e-09
4.03786e-10
-6.33108e-10
-4.08987e-09
-2.62326e-09
-7.98001e-10
-4.15408e-10
-4.01456e-10
-3.65776e-10
-1.11771e-10
8.36263e-13
2.67343e-10
1.00933e-09
1.57241e-09
1.332e-09
6.08617e-10
5.07178e-10
1.10198e-09
8.50493e-10
4.01314e-11
5.0366e-13
-4.87379e-11
-3.20422e-11
-4.96521e-13
3.94478e-12
9.11887e-11
4.79293e-10
1.02792e-09
1.54718e-09
1.5037e-09
3.46341e-10
-6.87666e-13
-5.67249e-11
-8.41167e-12
-1.3112e-11
-7.10147e-10
-3.11998e-09
-1.44687e-09
1.60729e-12
4.87865e-09
1.76e-08
3.86278e-09
-1.27473e-10
-2.73356e-09
-1.04823e-09
-2.40841e-10
-2.59918e-10
-3.80888e-10
-4.55233e-10
-5.86928e-10
-4.90632e-10
-7.35095e-11
1.49708e-11
8.28666e-10
2.97355e-09
2.97406e-09
1.13852e-09
5.1389e-10
4.96874e-10
1.99152e-10
5.58239e-11
7.16397e-13
-8.18865e-13
-1.405e-12
-4.15725e-12
-1.74232e-12
3.12578e-12
1.26828e-10
8.889e-10
3.42086e-09
4.37506e-09
9.55492e-10
1.83116e-12
-4.69244e-11
-6.40687e-10
-4.07019e-09
-6.11756e-09
-2.31208e-09
-5.63337e-11
2.10489e-09
2.3427e-08
1.45183e-08
8.77219e-11
-3.43645e-10
-1.73207e-10
-1.34367e-10
-3.74524e-10
-5.38805e-10
-5.0725e-10
-6.76037e-10
-1.28878e-09
-1.68256e-09
-6.19884e-10
7.50802e-13
1.10062e-09
4.25195e-09
3.28118e-09
9.00038e-10
2.58912e-10
1.68591e-10
1.28589e-10
1.364e-10
7.33886e-11
1.20119e-11
-1.78204e-12
-9.21247e-11
-1.52205e-10
-3.54436e-11
1.14805e-11
1.69373e-09
1.00795e-08
9.06126e-09
6.54134e-10
-8.19019e-11
-2.90405e-09
-8.77056e-09
-7.17433e-09
-1.91074e-09
-1.38376e-10
2.29053e-10
1.32233e-08
2.44271e-08
3.04913e-09
1.18228e-11
-2.57452e-12
-1.17077e-10
-5.90601e-10
-7.54963e-10
-6.22377e-10
-7.81335e-10
-1.57078e-09
-2.85061e-09
-2.8793e-09
-7.7819e-10
3.91741e-12
1.3196e-09
3.52402e-09
2.14269e-09
5.31381e-10
1.39116e-10
1.66784e-10
4.94485e-10
5.05908e-10
8.65884e-11
-2.83888e-13
-6.96205e-11
-2.18707e-10
-3.0906e-10
-1.19936e-10
4.42418e-11
5.98042e-09
2.03723e-08
5.41348e-09
-2.62875e-11
-4.58048e-09
-9.59967e-09
-5.34429e-09
-1.07091e-09
-8.20379e-11
1.20856e-12
2.46597e-09
1.74556e-08
1.08795e-08
1.65537e-09
3.37225e-11
-1.11792e-10
-7.54872e-10
-8.45024e-10
-6.60522e-10
-8.80642e-10
-1.86416e-09
-3.39976e-09
-3.74322e-09
-1.90405e-09
-1.66904e-10
4.59107e-11
1.08738e-09
1.93976e-09
1.05794e-09
2.44195e-10
1.1608e-10
5.52251e-10
6.04694e-10
4.8254e-11
-7.05027e-13
-1.0563e-11
-1.89884e-11
-7.9802e-11
-1.88932e-10
-2.75228e-11
7.34754e-10
1.48294e-08
1.45509e-08
1.60852e-10
-2.18043e-09
-6.32179e-09
-3.9101e-09
-8.3714e-10
-3.64368e-11
-1.89222e-13
1.01469e-10
4.8068e-09
1.25123e-08
5.85107e-09
3.07933e-10
-4.91708e-11
-5.22638e-10
-5.86793e-10
-4.98628e-10
-7.94387e-10
-2.03476e-09
-4.11369e-09
-4.47629e-09
-2.17237e-09
-2.48249e-10
3.43721e-12
2.90465e-10
7.32579e-10
6.162e-10
1.90472e-10
1.45805e-11
1.53368e-10
2.0533e-10
9.77053e-12
-8.61293e-16
1.40828e-12
6.27991e-12
-6.91054e-15
-2.77094e-11
-6.8307e-11
8.56385e-12
4.20396e-09
1.45596e-08
2.37144e-09
-1.58722e-10
-3.12829e-09
-3.04255e-09
-7.99245e-10
-3.73171e-11
-5.26786e-15
1.9703e-12
5.76278e-10
5.56848e-09
5.02761e-09
4.06906e-10
-2.50693e-12
-1.0611e-10
-1.84209e-10
-2.44114e-10
-5.35392e-10
-1.72291e-09
-4.37473e-09
-5.74878e-09
-2.97525e-09
-3.17812e-10
5.10582e-12
2.66644e-10
3.91574e-10
2.00549e-10
3.99883e-11
2.2414e-13
5.75988e-13
3.24142e-12
8.20372e-13
8.97522e-12
1.18206e-10
2.44154e-10
6.86635e-11
-1.45966e-13
-3.5516e-11
-2.54104e-12
7.97451e-10
8.18234e-09
5.12092e-09
2.1183e-11
-8.47096e-10
-1.58778e-09
-6.91185e-10
-1.29878e-10
-3.88206e-12
1.33226e-12
9.32506e-11
9.62691e-10
1.11971e-09
2.6533e-10
3.66661e-11
1.98813e-13
-1.61251e-11
-1.02912e-10
-2.96031e-10
-9.5936e-10
-3.11124e-09
-6.20654e-09
-4.79663e-09
-8.72019e-10
-5.49032e-13
1.64197e-10
3.35183e-10
1.82212e-10
2.86086e-11
2.16802e-12
-1.87539e-12
-3.67582e-12
1.53266e-13
6.29725e-11
4.05915e-10
6.54372e-10
2.48419e-10
2.6953e-12
-3.13598e-11
-3.12634e-11
1.04535e-10
4.32296e-09
6.93508e-09
7.34082e-10
-3.09012e-11
-5.98153e-10
-8.79705e-10
-5.7988e-10
-9.44632e-11
7.97673e-13
8.01202e-11
1.59681e-10
2.42721e-10
6.48107e-10
6.2748e-10
5.84542e-11
-4.54764e-12
-9.63263e-11
-1.69313e-10
-3.03433e-10
-1.10297e-09
-4.00048e-09
-6.31565e-09
-2.54695e-09
-8.58918e-11
3.08078e-11
1.85786e-10
1.71032e-10
6.74437e-11
8.41504e-12
1.25407e-14
-3.44185e-16
9.64227e-12
1.23318e-10
3.1944e-10
3.83193e-10
1.85048e-10
8.79782e-12
-6.99254e-12
-1.59774e-11
2.36186e-11
2.30552e-09
7.28504e-09
2.54534e-09
1.0201e-11
-4.60222e-10
-1.62735e-09
-1.18642e-09
-2.83769e-10
-8.65487e-13
2.07784e-10
9.70676e-10
1.70392e-09
1.562e-09
3.62057e-10
1.51717e-12
-3.1274e-11
-7.40597e-11
-3.98334e-11
-2.84076e-11
-1.6858e-10
-1.50448e-09
-5.38697e-09
-5.14921e-09
-7.44812e-10
1.06523e-12
1.05711e-10
9.93762e-11
4.32471e-11
1.40154e-11
1.46052e-11
4.25973e-11
1.68225e-10
3.01381e-10
1.9514e-10
5.82532e-11
1.28344e-11
2.22556e-12
1.59765e-13
1.79115e-12
1.27206e-10
1.75974e-09
5.18237e-09
2.28882e-09
7.87523e-12
-6.90529e-10
-1.64508e-09
-7.26152e-10
-1.62098e-10
-3.14172e-11
2.02292e-12
3.52081e-10
9.84543e-10
5.27278e-10
5.68446e-11
8.25479e-13
3.99378e-13
4.12164e-12
1.03588e-11
2.06473e-12
-1.10892e-11
-5.19348e-10
-3.32766e-09
-6.48667e-09
-3.11426e-09
-1.57295e-10
6.21212e-12
4.24134e-11
2.37662e-11
1.13933e-11
3.91959e-11
1.73353e-10
5.84118e-10
8.69929e-10
4.35078e-10
4.3792e-11
1.88164e-14
-5.11414e-13
3.23353e-13
5.77517e-11
6.10383e-10
2.25388e-09
3.11871e-09
7.78976e-10
-6.42612e-12
-7.71758e-10
-1.1448e-09
-3.31095e-10
-2.12718e-11
-4.03573e-12
-1.44684e-11
-1.46096e-11
-2.36454e-11
-7.12098e-11
-2.15621e-11
4.46553e-11
1.04816e-09
2.16762e-09
1.33769e-09
2.91603e-10
4.69894e-12
-7.05695e-11
-1.11312e-09
-4.06836e-09
-5.05437e-09
-1.80647e-09
-1.34308e-10
-2.09079e-13
2.61089e-12
9.39529e-12
7.80948e-11
3.62217e-10
1.40434e-09
2.35634e-09
9.5215e-10
2.09585e-11
-2.57464e-11
-5.69588e-11
-1.05245e-12
1.07163e-10
1.29501e-09
3.1041e-09
2.10589e-09
1.75053e-10
-5.7866e-11
-9.76764e-10
-1.21811e-09
-3.36123e-10
-1.10205e-11
-1.0321e-13
-2.96835e-11
-4.53424e-10
-1.41416e-09
-1.14563e-09
-3.16988e-11
7.4273e-10
4.63711e-09
3.68236e-09
6.54379e-10
6.92331e-11
6.99106e-11
6.45227e-11
-6.22784e-13
-4.69376e-10
-2.80259e-09
-3.9821e-09
-1.95546e-09
-3.22976e-10
-4.37691e-12
-9.65548e-13
2.01161e-10
1.7893e-09
3.69473e-09
1.90356e-09
8.39869e-11
-4.71874e-11
-3.80831e-10
-2.6879e-10
-6.85708e-12
1.60885e-10
1.70804e-09
3.0682e-09
1.34511e-09
3.15306e-11
-1.50023e-10
-1.01275e-09
-1.12669e-09
-3.33811e-10
-7.83933e-12
4.50537e-13
-1.84715e-12
-1.00504e-10
-8.75563e-11
9.34502e-12
9.45476e-10
2.06856e-09
4.31657e-10
-1.60979e-11
-5.75238e-10
-3.0452e-10
6.14494e-12
9.15663e-10
1.4687e-09
1.33404e-10
-8.98196e-11
-1.38147e-09
-2.38631e-09
-1.41471e-09
-2.8098e-10
-1.21039e-10
4.81814e-12
5.95199e-10
1.31963e-09
3.61302e-10
2.91339e-12
-5.25585e-12
-1.17399e-11
-6.48769e-12
2.41639e-13
1.48711e-10
1.20052e-09
1.88494e-09
6.15093e-10
3.9527e-12
-1.38825e-10
-6.38232e-10
-6.90764e-10
-2.48256e-10
-1.46299e-11
8.89896e-13
1.21009e-11
1.99756e-11
7.49606e-11
2.71922e-10
2.57059e-10
9.63257e-12
-9.46536e-11
-7.79609e-10
-1.2717e-09
-9.20483e-10
-1.30938e-10
7.83281e-11
1.73206e-09
1.7269e-09
1.23474e-10
-3.27216e-11
-4.63506e-10
-7.63608e-10
-5.57111e-10
-1.25164e-12
-6.24987e-15
1.03042e-12
3.16815e-12
1.44952e-12
1.17987e-12
1.09141e-11
6.45099e-11
1.05183e-10
7.41879e-11
7.95041e-11
1.30674e-10
1.17007e-10
2.94862e-11
9.44254e-14
-1.44175e-11
-1.07956e-10
-2.64161e-10
-3.31249e-10
-1.85111e-10
-2.33343e-11
7.83312e-13
5.38376e-11
1.74854e-10
1.98433e-10
8.15967e-11
4.63857e-12
-2.22959e-12
-4.54889e-11
-1.78646e-10
-4.04876e-10
-4.50294e-10
-8.3579e-11
1.38638e-11
3.06564e-10
1.83675e-10
3.00994e-12
-8.71237e-12
-2.19443e-11
-8.06267e-12
7.29241e-11
1.30747e-10
3.20171e-11
1.95212e-14
-8.35608e-12
-7.55719e-12
1.25906e-13
4.69249e-11
1.73147e-10
1.06163e-10
5.80748e-12
-3.99155e-12
-2.15684e-11
-1.31904e-12
1.71713e-11
1.15717e-10
7.10473e-11
1.6856e-12
-6.12734e-12
-1.50953e-11
-2.76301e-13
2.65015e-11
1.99437e-10
3.07776e-10
1.64634e-10
2.11175e-11
-6.83934e-13
-7.24978e-11
-3.22796e-10
-5.68045e-10
-5.88623e-10
-3.51403e-10
-7.25893e-11
-9.52049e-14
2.04977e-11
4.40345e-11
1.34235e-11
3.99126e-13
1.14678e-14
4.94847e-12
1.61914e-12
4.47541e-11
9.01297e-11
4.96314e-11
1.48085e-11
1.66579e-11
8.38792e-11
3.19274e-10
4.78434e-10
1.89435e-10
2.1866e-12
-3.47967e-11
-6.78251e-11
-7.74392e-13
1.15693e-10
7.10548e-10
8.24778e-10
3.22669e-10
5.3947e-11
8.60205e-12
6.25861e-12
7.17248e-12
1.23453e-12
-1.47741e-12
-4.92931e-11
-1.92799e-10
-3.2379e-10
-3.03496e-10
-1.91474e-10
-9.12643e-11
-4.33993e-11
-2.33818e-11
-8.7565e-12
-1.76764e-12
-5.20914e-13
-9.33411e-13
-3.6269e-12
-1.08882e-11
-1.4596e-11
-2.53316e-12
-8.15886e-12
-1.00038e-12
-1.37933e-13
9.14632e-15
6.67562e-12
1.49511e-10
8.69984e-10
2.20376e-09
3.05515e-09
2.33217e-09
7.98963e-10
8.1113e-11
5.06217e-13
-8.67805e-16
2.20371e-12
3.43613e-11
7.70805e-11
4.20257e-11
2.15923e-12
-2.7262e-12
-3.93188e-11
-1.02276e-10
-1.42608e-10
-1.32866e-10
-8.84809e-11
-5.29514e-11
-4.14948e-11
-4.14353e-11
-3.04516e-11
-9.40007e-12
-2.8424e-13
7.93134e-13
6.95704e-12
3.31443e-12
-5.7306e-13
-4.48345e-11
-1.7273e-10
-2.31948e-10
-1.48034e-10
-4.77974e-11
-2.27607e-10
-1.95478e-10
-1.21152e-10
-1.2987e-11
2.08892e-11
5.78821e-10
1.99605e-09
2.54384e-09
1.52239e-09
5.80494e-10
2.40055e-10
1.63895e-10
1.64824e-10
1.56248e-10
1.01003e-10
3.91074e-11
9.38339e-12
6.88727e-13
-3.51702e-13
-1.57359e-11
-8.57893e-11
-2.19444e-10
-3.38135e-10
-3.02655e-10
-1.57758e-10
-5.81595e-11
-1.89236e-11
-3.84669e-12
7.02875e-15
8.74244e-12
6.55186e-11
1.23446e-10
7.39651e-11
5.17053e-12
-5.64986e-12
-1.14789e-10
-3.39249e-10
-4.66801e-10
-4.12992e-10
-2.97126e-10
-1.60904e-12
-7.20858e-13
-4.4661e-13
-4.34328e-12
-2.74244e-11
-4.29593e-11
-2.65149e-11
-1.32297e-11
-1.93699e-11
-5.681e-11
-1.24313e-10
-2.41666e-10
-4.62947e-10
-7.81838e-10
-1.06559e-09
-1.18347e-09
-1.12887e-09
-9.37766e-10
-6.37706e-10
-3.24767e-10
-2.74281e-10
-8.27514e-10
-1.94795e-09
-2.07311e-09
-1.59416e-09
-1.26664e-09
-9.18792e-10
-6.13829e-10
-6.2389e-10
-1.24736e-09
-2.67579e-09
-3.86404e-09
-3.20305e-09
-1.09386e-09
-1.48496e-11
4.85456e-10
3.8491e-10
1.21602e-11
-5.7831e-14
-8.7398e-13
-4.06738e-12
-1.73986e-12
-5.08634e-12
-7.54635e-11
-4.8328e-10
-1.0846e-09
-1.02622e-09
-5.00502e-10
-2.31951e-10
-3.05471e-10
-6.897e-10
-1.39563e-09
-2.58816e-09
-4.69845e-09
-8.03502e-09
-1.21598e-08
-1.59481e-08
-1.81202e-08
-1.70999e-08
-9.78716e-09
-2.94802e-09
-1.95574e-09
-5.79693e-09
-1.30563e-08
-2.03557e-08
-2.60334e-08
-2.48134e-08
-1.75709e-08
-1.24028e-08
-1.37438e-08
-2.2691e-08
-3.48731e-08
-3.76872e-08
-2.40208e-08
-4.80173e-09
3.38353e-10
6.68795e-09
1.77634e-09
2.05034e-11
-1.73342e-12
-1.8784e-11
-6.86735e-12
-9.84059e-12
-7.58341e-11
-3.39945e-10
-8.05607e-10
-1.00055e-09
-5.69278e-10
-1.69329e-10
-1.19457e-10
-3.53334e-10
-8.96057e-10
-1.65465e-09
-2.94342e-09
-5.28308e-09
-7.99132e-09
-9.46285e-09
-9.37688e-09
-8.20373e-09
-4.43033e-09
-5.69679e-10
-2.30182e-11
-3.89513e-10
-4.4895e-09
-1.14733e-08
-1.60969e-08
-1.49474e-08
-9.79984e-09
-5.86337e-09
-5.15524e-09
-7.56182e-09
-1.20428e-08
-1.45167e-08
-1.10703e-08
-3.97709e-09
-5.71732e-11
2.94061e-09
6.44131e-09
4.82015e-10
-8.57715e-13
-1.35001e-11
-4.87862e-12
-1.41552e-12
-1.59113e-11
-7.16845e-11
-1.37425e-10
-1.59225e-10
-6.23805e-11
-2.56903e-12
-3.87908e-14
-1.56083e-11
-1.75516e-10
-4.57149e-10
-9.8262e-10
-2.12371e-09
-3.14156e-09
-2.65528e-09
-1.53313e-09
-7.26538e-10
-1.00617e-10
1.03875e-10
1.63174e-09
2.69206e-10
-3.00795e-10
-3.0489e-09
-4.05882e-09
-2.50128e-09
-7.97915e-10
-1.47819e-10
-5.89838e-11
-1.79406e-10
-6.29426e-10
-1.01277e-09
-6.66811e-10
-6.70552e-11
1.88283e-10
5.87318e-09
1.46637e-08
3.90835e-09
2.50919e-11
-3.09323e-14
-4.78384e-12
-2.93503e-13
-4.51895e-12
-3.04935e-11
-3.61989e-11
-1.13757e-11
-1.52499e-13
3.19181e-12
1.7159e-11
6.21326e-13
-3.13311e-11
-2.37479e-10
-7.02032e-10
-1.84839e-09
-2.67493e-09
-1.57817e-09
-4.88524e-10
-1.24404e-10
-5.32089e-14
1.03329e-09
8.3079e-09
4.30219e-09
-2.90976e-12
-1.82488e-09
-2.59425e-09
-1.12549e-09
-2.02384e-10
-5.09074e-12
4.40678e-13
-3.86649e-14
-1.94068e-11
-5.55301e-11
-1.47191e-11
5.69142e-12
1.10446e-09
1.1841e-08
2.98829e-08
1.65272e-08
1.18109e-09
1.80473e-10
-3.66473e-12
-9.09738e-12
-3.04677e-11
-1.19582e-10
-1.13238e-10
-9.97216e-12
6.4569e-12
4.83799e-11
3.52923e-11
5.34712e-12
-1.10284e-11
-2.88651e-10
-1.19735e-09
-3.14235e-09
-3.7693e-09
-1.4801e-09
-3.04672e-10
-1.1235e-10
-4.58537e-12
8.46956e-10
1.25343e-08
1.1486e-08
7.85749e-11
-1.4907e-09
-2.35471e-09
-9.39337e-10
-3.4099e-10
-1.40346e-10
-6.31937e-11
-6.6243e-11
-1.26331e-10
-1.01896e-10
-4.77437e-12
2.12073e-11
5.84833e-10
7.48446e-09
3.03496e-08
3.25195e-08
8.41006e-09
3.48156e-09
1.64555e-11
-2.92172e-11
-1.78311e-10
-5.16735e-10
-5.65211e-10
-1.15708e-10
1.12285e-11
4.07143e-10
2.13956e-10
8.81369e-12
-8.94875e-12
-3.73742e-10
-2.0788e-09
-4.96126e-09
-4.2535e-09
-9.6291e-10
-1.05909e-10
-6.69122e-11
-2.57439e-11
4.41844e-10
1.42727e-08
1.93492e-08
5.801e-10
-5.55618e-10
-9.20268e-10
-3.21586e-10
-2.4458e-10
-4.18839e-10
-7.81536e-10
-1.35681e-09
-1.85533e-09
-1.28134e-09
-1.59394e-10
1.59737e-11
5.94004e-10
3.46633e-09
1.66131e-08
3.15068e-08
2.14893e-08
1.51279e-08
1.43815e-09
-6.3735e-13
-3.37167e-10
-1.44342e-09
-2.13796e-09
-1.11416e-09
-1.45758e-11
6.87153e-10
1.70495e-09
1.26669e-10
-2.26722e-11
-7.07173e-10
-3.47511e-09
-6.43244e-09
-3.47645e-09
-4.94378e-10
-3.03675e-11
-1.98809e-11
-2.46846e-11
2.09342e-10
1.30723e-08
2.38305e-08
1.7678e-09
-2.76823e-11
-1.14159e-10
-6.32947e-11
-1.45414e-10
-4.87234e-10
-1.32956e-09
-3.05226e-09
-5.43835e-09
-5.79324e-09
-2.1488e-09
-2.5465e-11
4.1939e-10
2.35646e-09
6.87946e-09
1.68287e-08
2.46229e-08
2.53855e-08
1.19884e-08
3.82173e-10
-1.57119e-10
-2.22377e-09
-5.27572e-09
-4.80416e-09
-8.612e-10
8.77963e-11
3.9427e-09
2.17226e-09
-9.25001e-13
-1.3884e-09
-5.7127e-09
-6.85888e-09
-2.23187e-09
-1.71451e-10
-1.13937e-11
-6.88253e-12
-2.70318e-12
1.457e-10
9.70009e-09
2.32166e-08
3.92843e-09
3.48731e-11
-2.02879e-13
-1.23306e-11
-1.33435e-10
-5.45812e-10
-1.51188e-09
-3.61826e-09
-7.06681e-09
-9.22747e-09
-5.89944e-09
-7.77636e-10
3.28035e-11
1.47429e-09
3.25357e-09
5.75941e-09
1.36661e-08
2.12386e-08
3.40666e-08
6.00025e-09
-1.40075e-11
-3.59853e-09
-9.0708e-09
-7.19398e-09
-2.30495e-09
-2.29899e-11
1.84336e-09
7.03765e-09
6.67085e-10
-6.63162e-10
-6.21427e-09
-5.57569e-09
-1.07884e-09
-8.60578e-11
-3.8399e-11
-1.3663e-11
6.20325e-13
2.47348e-10
6.21172e-09
1.8503e-08
6.97638e-09
7.51742e-10
3.24654e-11
-7.27215e-12
-1.79244e-10
-5.47896e-10
-1.31953e-09
-3.24624e-09
-6.95613e-09
-1.00801e-08
-7.61374e-09
-1.9032e-09
-8.84454e-12
4.69045e-10
1.58797e-09
1.62492e-09
3.96086e-09
1.04447e-08
4.67186e-08
1.82376e-08
7.64596e-12
-5.40387e-09
-1.14298e-08
-5.98832e-09
-1.35588e-09
-8.42614e-11
1.65553e-10
4.80651e-09
4.39741e-09
2.42734e-12
-2.28356e-09
-3.00659e-09
-8.28259e-10
-2.50842e-10
-1.99981e-10
-3.88556e-11
1.652e-11
5.94669e-10
4.22483e-09
1.30053e-08
1.02478e-08
2.59119e-09
8.08615e-11
-3.54646e-11
-2.6749e-10
-4.67376e-10
-9.133e-10
-2.19361e-09
-5.09486e-09
-8.83443e-09
-7.89821e-09
-2.36152e-09
-3.97117e-11
1.89885e-10
8.17263e-10
4.44361e-10
5.51392e-10
2.86783e-09
3.21665e-08
2.17524e-08
8.34958e-11
-4.04131e-09
-8.60316e-09
-3.36224e-09
-3.4604e-10
-2.53423e-12
3.28534e-11
1.20504e-09
4.43317e-09
8.80686e-10
-1.40443e-10
-1.69549e-09
-1.31585e-09
-6.33749e-10
-3.34632e-10
-5.77017e-11
2.07447e-11
9.33877e-10
3.85717e-09
9.58964e-09
9.94215e-09
2.29103e-09
1.15972e-11
-8.00585e-11
-2.28572e-10
-3.40357e-10
-5.66982e-10
-1.04731e-09
-2.31142e-09
-5.28886e-09
-7.04828e-09
-3.0572e-09
-1.193e-10
1.17203e-10
7.38605e-10
2.96752e-10
5.18421e-11
4.66658e-10
8.06333e-09
8.80734e-09
1.13695e-10
-1.13726e-09
-2.5075e-09
-7.14986e-10
-2.0097e-11
7.2495e-12
1.37827e-10
7.6811e-10
2.75758e-09
2.0784e-09
5.36623e-12
-8.05169e-10
-1.37193e-09
-7.05019e-10
-3.11129e-10
-9.31831e-11
2.32305e-12
7.80876e-10
3.64275e-09
6.09937e-09
4.03455e-09
4.92578e-10
2.89157e-12
-5.67916e-12
-8.8934e-11
-3.4004e-10
-4.9433e-10
-3.67012e-10
-3.80972e-10
-1.30014e-09
-3.94286e-09
-3.70231e-09
-5.84648e-10
5.37559e-12
4.78139e-10
5.41757e-10
8.67314e-11
2.14479e-10
5.35276e-10
4.50322e-10
4.1432e-12
-3.16854e-11
-4.59805e-11
-7.4328e-12
1.70879e-14
1.52534e-11
2.21794e-10
1.27379e-09
3.18273e-09
3.07128e-09
2.10195e-10
-1.61261e-10
-7.90091e-10
-5.2475e-10
-3.16708e-10
-2.15122e-10
-6.74061e-12
3.82781e-10
2.81485e-09
3.22254e-09
1.46853e-09
5.64e-10
1.99179e-10
3.37315e-13
-2.95568e-10
-1.18582e-09
-9.16984e-10
-1.56111e-10
-2.20717e-12
-1.3402e-11
-6.96681e-10
-2.64471e-09
-1.48348e-09
-6.7713e-11
5.10519e-11
4.87148e-10
4.16286e-10
2.62844e-10
4.26928e-11
3.02072e-12
4.50372e-12
3.43982e-11
4.68841e-11
7.55124e-12
-2.81532e-14
8.20476e-15
1.04227e-10
1.83963e-09
5.26371e-09
4.74271e-09
7.74366e-10
-5.27405e-12
-3.00155e-10
-4.75639e-10
-5.45025e-10
-4.99019e-10
-8.79154e-11
1.09313e-10
2.63435e-09
4.09971e-09
2.59012e-09
1.13826e-09
4.69925e-11
-2.3723e-10
-1.84552e-09
-2.06201e-09
-7.47866e-10
-5.30679e-11
4.75451e-12
4.08195e-11
-4.85257e-12
-7.8049e-10
-1.62172e-09
-4.20068e-10
-1.88773e-12
9.19978e-11
3.93372e-10
2.77045e-10
7.93366e-11
1.80554e-11
4.73327e-11
1.35553e-10
1.28819e-10
1.98416e-11
-6.93163e-13
-7.34222e-12
2.58914e-11
2.0609e-09
8.03229e-09
6.98175e-09
1.38623e-09
3.01945e-12
-2.29891e-10
-9.65819e-10
-1.25845e-09
-7.23733e-10
-1.25647e-10
8.00239e-12
1.09997e-09
3.42779e-09
2.04412e-09
1.02686e-10
-2.2692e-10
-2.2155e-09
-2.04062e-09
-3.4537e-10
-2.60299e-12
9.15888e-13
2.19754e-12
1.58509e-11
5.46587e-12
-1.002e-10
-1.14866e-09
-9.89413e-10
-1.20612e-10
1.78685e-12
1.6117e-10
1.51422e-10
1.42422e-10
6.81257e-11
7.22925e-11
1.21415e-10
1.25473e-10
3.40477e-11
-4.30289e-14
-8.23519e-12
8.3651e-12
1.87472e-09
1.03274e-08
9.91371e-09
1.77975e-09
-6.30229e-13
-7.80481e-10
-2.36152e-09
-1.87571e-09
-4.58515e-10
-1.24083e-11
8.19689e-12
1.28724e-10
2.05534e-10
6.52502e-12
-3.88187e-10
-2.96065e-09
-2.52906e-09
-1.28756e-10
2.33646e-10
1.4936e-09
7.32585e-10
2.24281e-11
-3.50685e-13
1.18423e-14
-5.20054e-12
-4.44246e-10
-1.40523e-09
-7.84389e-10
-6.07762e-11
9.39263e-12
1.64293e-12
2.1796e-11
3.51414e-11
1.00835e-10
2.6733e-10
2.42097e-10
4.57085e-11
4.31687e-14
-4.52703e-12
2.37388e-12
1.06118e-09
8.3756e-09
1.001e-08
1.57093e-09
-2.70044e-11
-1.75569e-09
-2.85425e-09
-1.19632e-09
-9.40971e-11
8.87742e-13
2.24724e-11
2.05142e-12
-3.11608e-11
-7.08333e-10
-2.65444e-09
-2.41647e-09
-1.59276e-10
2.71474e-10
2.44458e-09
2.27215e-09
8.23898e-10
2.18012e-10
2.31108e-11
2.88291e-12
1.23955e-12
-2.91692e-11
-6.86635e-10
-1.32793e-09
-5.85053e-10
-3.6277e-11
-1.97206e-10
-1.26466e-11
8.223e-12
2.09542e-10
3.35509e-10
7.39448e-11
4.75293e-14
-1.21763e-11
-7.47425e-12
5.76743e-12
5.83993e-10
3.44695e-09
3.94659e-09
5.23483e-10
-2.02742e-11
-4.92946e-10
-4.13672e-10
-9.0191e-11
-9.31979e-12
-1.83646e-12
-7.5041e-12
-9.30365e-11
-5.71053e-10
-1.2144e-09
-5.44511e-10
-7.28468e-14
5.17046e-10
1.07413e-09
1.62522e-10
-8.04237e-13
-9.97457e-13
2.32287e-10
1.71407e-09
1.2257e-09
2.82763e-10
1.4123e-11
-3.4736e-11
-5.12095e-10
-9.56344e-10
-6.49981e-10
-5.27511e-10
-1.35061e-10
-2.12421e-12
6.0531e-12
1.14255e-11
1.21782e-12
-6.17927e-16
-1.38544e-14
1.04866e-12
5.97895e-11
4.53951e-10
1.07186e-09
7.95266e-10
1.38124e-10
2.13798e-12
-7.69632e-13
-9.24961e-12
-2.39421e-11
-2.72084e-11
-1.58135e-11
-1.47134e-11
-5.00805e-11
-1.32124e-10
-6.81397e-11
4.45704e-13
1.35619e-10
1.71659e-10
8.04859e-13
-2.48615e-10
-1.07585e-09
-6.14613e-10
4.1066e-12
2.33408e-09
6.92086e-09
2.87536e-09
1.76178e-10
-1.12838e-11
-3.81105e-10
-9.00821e-10
-9.00933e-10
-6.55128e-11
-3.08652e-11
-2.67127e-11
-2.44005e-11
-1.16487e-11
-1.05859e-12
1.03987e-13
6.88489e-12
4.03773e-11
1.4874e-10
3.55448e-10
4.64229e-10
3.16186e-10
1.31192e-10
4.06935e-11
3.61356e-12
-1.80048e-12
-5.46863e-11
-1.17406e-10
-5.64221e-11
-3.48024e-12
1.97196e-13
3.57826e-12
1.19803e-11
3.03013e-11
2.47958e-11
5.30687e-13
-3.29646e-11
-3.62491e-10
-8.97263e-10
-7.92636e-10
-9.39452e-11
1.51073e-10
2.86699e-09
3.36249e-09
4.53957e-10
-5.64504e-12
-3.36311e-10
-4.88965e-10
-2.15501e-10
3.82213e-12
1.6676e-11
7.04724e-13
-1.2564e-11
-1.09966e-10
-1.70712e-10
-5.60916e-11
1.65121e-13
7.88165e-11
2.28139e-10
1.55261e-10
3.9749e-11
7.44755e-12
1.41001e-11
8.91057e-11
1.91949e-10
1.08535e-10
1.59605e-11
9.44364e-13
9.45757e-13
7.34449e-12
2.60893e-11
3.69105e-11
1.81773e-11
6.68848e-13
-1.03951e-11
-1.81709e-10
-6.33064e-10
-9.33243e-10
-7.10283e-10
-2.26737e-10
-8.21395e-12
1.80909e-11
2.59812e-10
4.5344e-10
1.44699e-10
1.35736e-12
-9.06143e-12
-2.06717e-11
-1.85859e-12
3.77537e-12
8.80716e-11
1.36494e-10
3.28686e-11
-4.32188e-14
-1.37938e-11
-7.50576e-12
6.61442e-12
3.35653e-10
8.90763e-10
3.99941e-10
1.54258e-11
-2.76267e-13
4.69791e-13
9.28406e-11
3.64718e-10
2.62995e-10
4.92243e-11
3.61885e-12
1.29145e-12
2.06551e-12
2.92606e-13
-2.24202e-12
-5.69387e-11
-2.15468e-10
-3.23718e-10
-2.78573e-10
-1.94402e-10
-1.30829e-10
-5.37398e-11
-3.43032e-12
1.56811e-12
1.64136e-11
1.10934e-11
2.71064e-13
-5.72071e-12
-5.96154e-11
-1.28495e-10
-9.34729e-11
-1.0071e-11
-1.8458e-11
-2.74327e-13
1.41192e-13
1.53761e-12
9.71659e-12
4.82716e-11
1.49471e-10
3.87254e-10
1.09654e-09
2.44085e-09
2.60172e-09
9.95853e-10
1.09268e-10
2.02718e-12
4.33099e-16
-8.44127e-15
-4.98858e-13
-9.64852e-12
-4.7439e-11
-9.53366e-11
-1.04216e-10
-6.92159e-11
-2.37438e-11
-1.60324e-12
2.61875e-13
2.0891e-12
5.40389e-14
-6.28893e-12
-3.08134e-11
-1.20782e-11
3.54693e-13
4.0761e-11
7.76943e-11
1.03768e-11
-4.95371e-12
-1.39149e-10
-4.16426e-10
-5.42285e-10
-3.81028e-10
-1.3612e-10
-7.00378e-10
-4.18567e-10
-1.07178e-10
-5.5827e-14
1.48466e-10
8.60346e-10
1.32371e-09
9.11923e-10
3.76888e-10
1.55256e-10
1.0226e-10
7.60776e-11
3.91697e-11
1.69182e-11
1.23194e-11
1.92545e-11
2.90141e-11
2.19443e-11
3.27465e-12
-5.45507e-13
-3.35376e-11
-1.2795e-10
-1.47614e-10
-5.82746e-11
-5.62045e-12
-2.70134e-14
-3.26832e-15
-2.04921e-13
-9.06956e-14
1.47406e-12
3.8053e-11
1.29776e-10
1.30076e-10
2.46418e-11
-1.87395e-12
-1.3555e-10
-5.20584e-10
-8.65425e-10
-9.75186e-10
-8.92414e-10
-1.67097e-11
-2.14759e-12
-1.56232e-12
-2.21693e-11
-9.99698e-11
-1.5493e-10
-1.35343e-10
-8.9536e-11
-6.90228e-11
-1.00995e-10
-2.45808e-10
-5.97539e-10
-1.16714e-09
-1.7741e-09
-2.21436e-09
-2.46787e-09
-2.68751e-09
-2.87081e-09
-2.572e-09
-1.27452e-09
-2.17968e-10
-3.20357e-11
-7.34964e-11
-1.55828e-10
-9.69862e-11
-4.38881e-11
-4.33219e-11
-1.29681e-10
-5.55367e-10
-1.71766e-09
-3.04883e-09
-2.83576e-09
-1.21432e-09
-1.62728e-10
3.27256e-11
1.6814e-10
1.04125e-10
6.64893e-12
-9.22832e-13
-1.88459e-11
-3.95013e-11
-1.50656e-11
-5.9541e-11
-4.29633e-10
-1.28272e-09
-1.89868e-09
-1.90157e-09
-1.52649e-09
-1.22291e-09
-1.28598e-09
-2.07221e-09
-4.11413e-09
-7.76316e-09
-1.25499e-08
-1.75546e-08
-2.20966e-08
-2.714e-08
-3.42506e-08
-4.04187e-08
-3.17151e-08
-9.16988e-09
-5.36443e-10
-9.69037e-11
-6.35666e-10
-1.90803e-09
-2.43422e-09
-2.58386e-09
-3.59298e-09
-7.67475e-09
-1.79096e-08
-3.20143e-08
-3.72509e-08
-2.52798e-08
-8.43052e-09
-8.0088e-10
2.75545e-10
1.47798e-09
4.46153e-10
7.77544e-13
-3.66098e-11
-2.33078e-11
-1.3269e-11
-4.60338e-11
-3.17378e-10
-9.90404e-10
-1.60572e-09
-1.80038e-09
-1.74469e-09
-1.64e-09
-1.52596e-09
-1.66279e-09
-2.52035e-09
-4.47813e-09
-7.18306e-09
-9.46273e-09
-1.02831e-08
-1.05521e-08
-1.23489e-08
-1.60768e-08
-1.60161e-08
-6.31745e-09
-1.81708e-10
4.35323e-11
-2.18832e-11
-1.47938e-09
-3.41403e-09
-3.29503e-09
-2.88862e-09
-3.96316e-09
-7.83701e-09
-1.41646e-08
-1.78051e-08
-1.37663e-08
-5.66176e-09
-8.24421e-10
-7.47467e-13
8.74072e-10
1.71077e-09
2.66393e-10
-5.58224e-13
-1.04186e-13
-1.22172e-12
-2.92785e-12
-5.3558e-11
-2.65582e-10
-5.14508e-10
-6.16958e-10
-6.16273e-10
-5.53385e-10
-4.13868e-10
-3.28464e-10
-4.74145e-10
-1.08897e-09
-2.10072e-09
-2.56625e-09
-1.87867e-09
-1.02163e-09
-8.45497e-10
-1.43559e-09
-1.91343e-09
-4.48313e-10
1.66188e-10
3.49102e-09
7.9319e-10
-8.51084e-11
-1.049e-09
-6.71892e-10
-1.8966e-10
-1.31478e-10
-4.67053e-10
-1.56675e-09
-2.50393e-09
-1.6805e-09
-2.82163e-10
8.46272e-12
9.2613e-10
4.5017e-09
7.15951e-09
3.7417e-09
2.09721e-10
6.68585e-11
6.33965e-15
-8.68159e-16
-6.28199e-12
-8.45305e-11
-2.29929e-10
-3.38916e-10
-4.04987e-10
-3.8652e-10
-2.23791e-10
-1.04952e-10
-1.15407e-10
-3.89023e-10
-1.07509e-09
-1.3354e-09
-5.8518e-10
-7.12505e-11
-1.43618e-11
-1.57155e-10
-6.99563e-10
-1.74393e-10
6.28682e-10
1.20167e-08
7.24775e-09
6.38104e-12
-5.98796e-10
-3.54806e-10
-1.30518e-11
3.49342e-14
-5.62025e-12
-1.94872e-10
-6.187e-10
-4.52583e-10
-2.31345e-11
1.89272e-10
3.52208e-09
1.24172e-08
1.94386e-08
1.63421e-08
4.11702e-09
2.00221e-09
7.831e-12
-2.16547e-14
-6.02765e-12
-7.46589e-11
-2.16891e-10
-3.57267e-10
-5.59697e-10
-7.94281e-10
-6.37678e-10
-2.84165e-10
-1.84978e-10
-4.03251e-10
-9.78442e-10
-1.00426e-09
-2.20576e-10
-1.34297e-13
6.76064e-12
-2.07049e-11
-7.24873e-10
-5.81294e-10
1.09561e-10
1.24795e-08
1.58313e-08
2.53779e-10
-6.34335e-10
-8.09302e-10
-8.7684e-11
-1.51644e-12
-6.23896e-12
-1.51758e-10
-6.30168e-10
-6.93216e-10
-1.30518e-10
1.46711e-11
1.59233e-09
9.71851e-09
2.2849e-08
3.12655e-08
2.1057e-08
1.72894e-08
4.28832e-10
-1.32329e-13
-2.23738e-11
-1.21317e-10
-2.6836e-10
-3.88337e-10
-5.80445e-10
-1.05668e-09
-1.4107e-09
-9.21953e-10
-5.12337e-10
-6.05265e-10
-8.74038e-10
-4.90138e-10
-1.29933e-11
4.51117e-11
5.98551e-11
-4.92601e-12
-4.85237e-10
-4.3075e-10
8.27013e-11
1.1704e-08
2.09522e-08
9.62082e-10
-3.16906e-10
-8.39154e-10
-2.23799e-10
-5.65536e-11
-1.174e-10
-5.85329e-10
-1.66331e-09
-2.11473e-09
-8.84533e-10
-1.74658e-11
3.08195e-10
4.37868e-09
1.56221e-08
3.37763e-08
4.97194e-08
6.22312e-08
6.1374e-09
5.42264e-12
-6.75737e-11
-2.5415e-10
-4.16306e-10
-4.93837e-10
-4.93186e-10
-5.9352e-10
-1.08117e-09
-1.59955e-09
-1.69115e-09
-1.75342e-09
-1.37503e-09
-2.47414e-10
9.44542e-12
3.35011e-10
8.85488e-11
-1.07207e-11
-2.35508e-10
-6.23875e-11
5.19257e-10
1.38201e-08
1.9568e-08
1.25906e-09
-7.25376e-11
-3.7577e-10
-1.94464e-10
-1.74172e-10
-5.07802e-10
-1.72001e-09
-4.11759e-09
-6.00649e-09
-4.2347e-09
-7.4416e-10
4.65837e-12
1.2724e-09
7.02748e-09
2.25203e-08
6.40144e-08
1.12046e-07
3.4128e-08
4.59097e-10
-6.97899e-11
-5.14084e-10
-7.1099e-10
-5.95365e-10
-4.27697e-10
-2.18083e-10
-2.0454e-10
-8.62843e-10
-2.8722e-09
-4.88072e-09
-3.44013e-09
-3.61143e-10
5.86278e-11