/*--------------------------------*- C++ -*----------------------------------*\
| =========                 |                                                 |
| \\      /  F ield         | OpenFOAM: The Open Source CFD Toolbox           |
|  \\    /   O peration     | Version:  5.0                                   |
|   \\  /    A nd           | Web:      www.OpenFOAM.org                      |
|    \\/     M anipulation  |                                                 |
\*---------------------------------------------------------------------------*/
FoamFile
{
    version     2.0;
    format      ascii;
    class       volScalarField;
    location    "50.4676134421789371";
    object      UUV;
}
// * * * * * * * * * * * * * * * * * * * * * * * * * * * * * * * * * * * * * //

dimensions      [0 3 -3 0 0 0 0];

internalField   nonuniform List<scalar> 
60000
(
-8.40695e-14
-9.51312e-13
-3.50981e-12
-1.61404e-12
9.45837e-14
5.87572e-16
3.01155e-14
9.3493e-14
-2.08804e-14
3.33891e-13
-7.2942e-13
-4.84548e-13
-1.02795e-13
-1.40511e-13
-4.69947e-13
-5.04326e-13
-4.73964e-14
4.09871e-13
3.88606e-12
1.37152e-11
3.08189e-11
2.08934e-11
-2.01017e-11
-1.65917e-11
5.33e-11
1.32728e-10
1.12228e-10
2.66284e-11
-6.63365e-12
-4.8254e-12
-5.28798e-12
-1.3857e-11
-2.21482e-11
-1.30324e-11
-1.13167e-12
1.06871e-14
-2.07123e-15
-9.75699e-13
-1.83599e-12
-1.15133e-12
-5.33923e-11
-8.23938e-13
-7.96062e-12
8.48586e-12
1.28493e-11
1.63736e-13
-2.06935e-13
-2.36432e-12
8.134e-13
-3.92873e-11
-1.13791e-10
-7.75444e-11
-1.13503e-11
1.86378e-12
6.21427e-12
1.75681e-11
5.3956e-11
1.05457e-10
7.57688e-11
-9.41219e-11
-3.1384e-10
-4.84318e-10
-2.51404e-10
1.12618e-09
3.81532e-09
6.4608e-09
5.49793e-09
1.72164e-09
-2.95163e-10
-2.07768e-10
-3.70079e-11
-1.94932e-11
-2.00158e-10
-3.99433e-10
-2.36999e-10
-7.11843e-12
3.76849e-13
2.73304e-12
-4.20376e-11
-1.05674e-10
-2.5883e-10
-9.31892e-11
-4.11718e-12
4.29881e-13
1.18351e-11
5.80073e-12
2.10535e-15
-2.79554e-12
7.92125e-12
-3.50839e-11
-2.1671e-10
-2.58984e-10
-7.05857e-11
-5.76536e-13
1.52076e-11
9.7318e-11
2.71262e-10
3.15793e-10
9.38181e-11
-1.46604e-10
-4.01002e-10
-8.13576e-10
-4.83204e-10
1.88684e-09
5.38153e-09
7.96732e-09
6.30924e-09
1.96563e-09
-4.30068e-10
-3.4315e-10
-5.54229e-11
2.1293e-11
2.41023e-11
-1.91157e-10
-3.50848e-10
-8.07743e-11
5.9905e-14
6.29906e-13
4.14441e-11
-1.27524e-10
-1.92059e-10
-6.84833e-11
-6.74819e-17
2.89905e-12
3.64385e-11
5.9717e-11
1.81449e-11
-1.79284e-12
1.80244e-13
2.44618e-12
-1.3155e-10
-2.00635e-10
-2.30204e-11
-1.66437e-12
2.94093e-12
3.91576e-11
2.36423e-10
1.44177e-10
2.75025e-13
-3.75645e-11
-2.3509e-11
-1.5311e-10
-2.8521e-10
1.46137e-09
3.25906e-09
3.59567e-09
2.03582e-09
2.4133e-10
-2.02539e-10
-2.30054e-12
-5.65046e-11
-7.25938e-12
1.88069e-12
-2.36696e-12
-2.97586e-11
-5.57824e-14
-1.0254e-11
1.17901e-10
8.07781e-13
-9.42169e-13
-1.13541e-10
-7.57067e-11
-8.70787e-12
5.42198e-12
1.14112e-10
1.85485e-10
1.15148e-10
-7.68857e-12
1.57123e-13
5.32382e-13
-5.81378e-11
-2.61305e-10
-2.61459e-11
-3.56908e-11
4.61129e-11
8.59312e-12
3.1295e-10
1.37427e-10
3.25886e-11
-8.24493e-10
-1.57331e-09
-5.63892e-11
-2.81719e-10
1.78423e-09
3.28641e-09
2.4222e-09
1.0222e-09
7.7287e-11
-1.34838e-10
-1.40618e-11
-3.46805e-10
-2.16531e-10
2.59894e-11
-6.26635e-12
-4.83437e-11
-7.65059e-11
-1.18269e-10
3.78393e-10
2.63138e-10
1.25146e-12
-1.16974e-11
-1.89254e-10
-1.39666e-11
-7.87849e-12
8.26547e-11
1.92405e-10
1.7853e-10
5.33214e-11
1.67545e-11
3.20423e-11
-8.79967e-13
-2.49717e-10
-2.0142e-10
-7.23148e-12
1.04357e-11
7.51365e-11
1.00151e-09
5.50458e-10
1.81367e-11
-1.70461e-09
-6.51089e-09
-1.34635e-09
-3.32675e-10
2.66614e-09
4.04024e-09
1.79146e-09
6.82046e-10
1.34415e-10
-2.82917e-10
-2.39999e-10
-3.92336e-13
-1.52739e-10
-1.04533e-10
-4.52437e-11
-1.96375e-10
-2.57972e-10
-1.57406e-10
2.06549e-10
5.31695e-10
7.26997e-11
2.76363e-12
-6.42708e-11
-8.32902e-11
-2.14854e-12
4.79951e-12
5.16671e-11
8.94739e-11
9.22074e-11
1.09653e-10
1.93892e-10
-4.99353e-12
-2.17305e-15
-1.74993e-10
-4.6267e-11
-4.83745e-12
6.34217e-10
2.88698e-09
1.50395e-09
3.77725e-12
-1.91554e-09
-1.3982e-08
-6.82763e-09
-8.36442e-11
2.25386e-09
2.7042e-09
9.49093e-10
5.82084e-10
1.96939e-10
-2.64313e-10
-6.15239e-10
-5.98724e-10
-1.44558e-10
-1.29812e-11
-2.09055e-10
-5.02112e-10
-6.40928e-10
-2.8144e-10
5.48734e-11
3.28438e-10
2.5492e-10
9.32141e-11
-1.23264e-12
-4.09022e-12
-3.28235e-12
3.23601e-12
3.18292e-12
7.91154e-13
9.33161e-12
8.64525e-11
2.81746e-10
-2.78511e-11
-7.64729e-10
-3.62903e-11
-1.54401e-10
-2.09142e-10
2.6e-09
5.85052e-09
2.62608e-09
7.61407e-11
-1.19051e-09
-1.7554e-08
-1.72917e-08
-3.33484e-10
5.56732e-10
9.13083e-10
6.87083e-10
8.36888e-10
2.97269e-10
-2.46742e-10
-5.51224e-10
-8.61935e-10
-9.68622e-10
-5.30339e-10
-3.50954e-12
-5.01253e-10
-1.08611e-09
-5.40226e-10
2.43904e-11
1.56375e-10
2.09563e-10
1.66658e-10
7.11416e-11
-4.51225e-11
-6.77562e-12
1.88586e-12
5.35559e-11
7.60172e-12
-6.25421e-12
3.51982e-13
1.5971e-11
-4.9426e-10
-3.51682e-09
-1.63073e-09
-1.81015e-10
-5.94251e-10
5.41761e-09
8.04177e-09
2.93164e-09
1.5947e-10
-2.59233e-10
-1.27193e-08
-2.48884e-08
-3.20276e-09
1.00283e-10
3.41611e-11
6.27767e-10
1.1772e-09
3.32043e-10
-2.86157e-10
-5.09432e-10
-6.69369e-10
-7.95502e-10
-1.07346e-09
-7.42816e-10
-3.81262e-14
-7.75242e-10
-9.21169e-10
-1.06066e-10
1.50506e-10
1.37815e-10
1.49196e-10
2.57094e-10
7.04067e-11
4.92874e-11
1.14981e-13
7.79419e-11
4.37531e-11
-3.13159e-11
-1.08253e-11
-8.02925e-12
-1.08371e-09
-6.86679e-09
-6.07904e-09
-1.03998e-11
-3.02246e-10
7.21782e-09
7.78415e-09
2.33871e-09
1.36474e-10
-2.5597e-13
-4.30477e-09
-2.05786e-08
-7.25372e-09
2.45243e-09
4.97799e-10
5.5727e-10
1.28026e-09
2.18049e-10
-3.26481e-10
-4.58613e-10
-4.61865e-10
-3.30352e-10
-5.91418e-10
-9.77877e-10
-3.4536e-10
-6.86513e-11
-6.71691e-10
-4.60668e-10
-4.51458e-12
9.96093e-11
3.73493e-11
2.22238e-10
3.05391e-10
1.04825e-10
3.76399e-12
3.41707e-11
1.40372e-11
-1.06592e-11
-1.29893e-12
-1.52676e-11
-3.6131e-10
-6.7023e-09
-1.04782e-08
-5.69039e-10
2.9231e-10
6.45301e-09
6.77975e-09
2.0808e-09
9.79105e-11
-4.76433e-12
-4.65843e-10
-8.86026e-09
-8.35944e-09
5.81703e-09
2.01328e-09
2.47286e-10
8.27336e-10
4.59549e-11
-2.77009e-10
-3.22877e-10
-1.95638e-10
1.4613e-10
-1.06797e-10
-7.26533e-10
-3.75027e-10
-3.39932e-12
-3.2119e-10
-4.22322e-10
-2.0311e-10
-2.97864e-11
-1.73521e-11
1.37231e-11
2.16992e-10
6.18917e-11
7.08016e-14
6.7988e-12
9.03276e-12
-2.46918e-14
-6.2242e-13
-1.99708e-11
-5.93624e-12
-3.13481e-09
-1.02221e-08
-2.29154e-09
6.94932e-11
4.02267e-09
5.58131e-09
2.00313e-09
1.27637e-10
-3.4926e-13
-3.1578e-11
-2.02896e-09
-5.51909e-09
4.36051e-09
2.14288e-09
9.12291e-12
2.15231e-10
-1.97978e-11
-1.54796e-10
-1.43949e-10
1.5191e-10
7.95477e-10
4.6796e-10
-6.38445e-10
-4.14485e-10
-6.03422e-12
-2.92565e-10
-2.85757e-10
-1.39999e-10
-5.02568e-11
-3.73217e-12
-2.59398e-12
1.12614e-11
1.19843e-11
4.66459e-11
2.09245e-10
1.65479e-10
7.99137e-12
-2.14473e-14
-1.79131e-11
-1.9946e-11
-1.01382e-09
-7.07279e-09
-3.66244e-09
4.33654e-11
1.38943e-09
3.29227e-09
1.78859e-09
3.73892e-10
-3.18078e-12
-1.80066e-11
-5.96252e-10
-1.95065e-09
1.0073e-09
1.23027e-09
2.8497e-10
4.40629e-12
-6.04837e-12
-6.67406e-11
-1.91427e-11
3.4631e-10
1.20939e-09
1.27742e-09
-5.61976e-10
-7.73876e-10
-1.16735e-11
-1.87747e-10
-1.75456e-10
-8.01174e-11
-5.02992e-11
-1.84921e-11
-8.15454e-12
3.14898e-12
4.63882e-13
1.65539e-10
5.20444e-10
4.58732e-10
1.15029e-10
3.77692e-12
-3.01946e-12
-7.91719e-11
-2.25263e-10
-5.16181e-09
-5.52493e-09
7.46633e-11
7.07841e-11
1.44515e-09
2.02147e-09
1.23043e-09
1.20385e-10
-1.34205e-12
-4.54161e-10
-5.81863e-10
1.16067e-10
1.31175e-09
1.20065e-09
1.1283e-10
-6.62049e-13
-3.24964e-11
4.39088e-11
2.60896e-10
8.25514e-10
1.39073e-09
-3.25968e-10
-1.5043e-09
-2.38118e-10
-4.61702e-11
-6.82966e-11
-9.16061e-12
-6.07303e-11
-3.20003e-11
-6.54025e-13
-1.94878e-14
2.23147e-11
2.05537e-10
3.75067e-10
3.17733e-10
1.46032e-10
2.29139e-11
9.07162e-12
-2.0195e-11
-6.65363e-11
-4.02211e-09
-8.10085e-09
-1.08023e-09
8.25556e-11
1.09664e-09
3.47291e-09
2.29364e-09
2.52596e-10
-1.52228e-11
-6.09412e-10
-1.52354e-09
-2.0857e-10
1.34259e-09
6.20279e-10
1.33905e-11
2.09506e-11
2.013e-11
3.89129e-11
5.88058e-11
2.19608e-10
7.15545e-10
-2.08224e-10
-2.57434e-09
-1.0356e-09
-2.70252e-13
-1.6115e-11
4.61686e-11
-1.47963e-11
-2.87404e-11
-4.37554e-11
-3.78131e-11
1.08908e-10
3.8182e-10
3.10365e-10
9.3402e-11
1.55628e-11
4.20793e-12
1.33768e-12
7.84741e-13
-2.66263e-10
-3.65557e-09
-8.23891e-09
-1.90835e-09
8.01522e-11
1.87008e-09
4.16937e-09
1.61684e-09
3.99477e-11
-1.557e-10
-1.09271e-11
-7.11954e-10
-3.27924e-10
5.30456e-10
1.98914e-10
1.00957e-11
2.48192e-12
7.74208e-12
1.77903e-11
1.09547e-11
1.75168e-11
2.12668e-10
-3.36569e-10
-3.25778e-09
-3.14062e-09
-3.59113e-10
-2.27558e-12
5.0833e-11
1.62515e-11
-8.9565e-12
-6.45379e-11
-1.04948e-10
2.13966e-10
8.13907e-10
5.72351e-10
7.33023e-11
-6.73888e-14
-1.6123e-12
-6.05362e-14
-1.57891e-12
-6.1595e-10
-3.95263e-09
-5.83017e-09
-8.63392e-10
1.93477e-12
2.26282e-09
3.10465e-09
7.45504e-10
-2.61032e-11
-3.73557e-11
-1.09568e-10
-8.4487e-11
-1.48843e-11
1.76097e-10
1.56108e-10
9.0191e-11
6.33662e-10
4.78248e-10
5.27604e-10
3.55818e-10
2.68894e-11
2.2822e-11
-3.79608e-10
-2.51997e-09
-4.72827e-09
-2.34673e-09
-1.80718e-10
1.45963e-12
6.10624e-12
1.3258e-12
-3.07679e-11
-3.16292e-11
3.98684e-10
1.29356e-09
8.43769e-10
3.17301e-11
-2.92989e-11
-1.28993e-10
-1.02722e-11
-7.76129e-11
-9.37109e-10
-3.603e-09
-2.97083e-09
-5.26167e-11
1.4697e-10
2.29093e-09
2.2436e-09
3.45317e-10
-4.64767e-11
-2.43227e-12
-1.24297e-10
-5.56948e-10
2.67099e-10
1.42263e-09
1.86394e-10
3.58935e-10
2.21659e-10
9.64914e-10
9.82539e-10
2.94205e-10
2.03897e-10
4.11322e-11
-5.90111e-13
-5.53853e-10
-2.6197e-09
-3.71319e-09
-1.63414e-09
-1.1546e-10
6.81233e-12
-2.05582e-12
-2.34264e-11
-6.51876e-11
5.0908e-10
1.41796e-09
3.42295e-10
7.7243e-11
-1.94607e-10
-6.56153e-10
-8.0715e-11
-2.35819e-10
-1.02e-09
-1.85581e-09
-8.7701e-10
3.66991e-11
2.52187e-10
1.51038e-09
1.45682e-09
2.95044e-10
-2.49929e-11
-6.61079e-12
-8.69052e-12
-1.30228e-10
8.70228e-11
8.19427e-12
5.60389e-10
4.77625e-10
2.92359e-10
1.68724e-11
1.03102e-09
8.67915e-10
1.61628e-12
2.25156e-10
-1.00115e-09
-4.06823e-10
-1.39683e-10
-1.29032e-09
-1.83574e-09
-9.32506e-10
-1.61465e-10
-1.81273e-10
-3.20975e-12
-2.00898e-10
6.71437e-10
9.39238e-10
6.51233e-11
3.9108e-11
-7.70823e-12
-7.42435e-11
-2.26701e-13
-5.09959e-10
-1.31838e-09
-6.81928e-10
5.00758e-11
1.58655e-11
1.50276e-10
6.53723e-10
8.01453e-10
3.18614e-10
4.41894e-12
-3.13763e-12
-5.1723e-11
-4.40103e-11
1.24459e-11
2.01928e-10
2.23182e-10
2.93229e-11
9.20223e-11
7.74935e-10
1.60343e-09
1.46534e-09
3.31945e-10
1.78753e-11
-8.97849e-10
-1.57406e-09
-2.81397e-10
-3.73997e-11
-3.07381e-10
-4.17689e-10
-3.55986e-10
-5.28776e-12
-5.41311e-13
-7.64302e-12
5.62557e-12
2.54639e-11
2.7764e-11
7.75712e-11
2.27259e-12
-4.72413e-10
-6.2964e-10
-5.94277e-10
-4.83022e-10
-1.20729e-10
3.60445e-11
2.00691e-12
3.44795e-11
1.95109e-10
4.85902e-10
6.1894e-10
2.89125e-10
-4.5311e-12
-1.37039e-12
-1.33052e-10
-2.07341e-10
-2.74722e-11
7.39562e-11
2.07282e-11
6.7552e-12
1.10376e-10
3.77285e-10
6.97542e-10
4.91308e-10
-6.78995e-11
-3.2903e-11
-5.71448e-10
-2.65868e-10
-8.04292e-12
-2.52037e-12
5.80449e-12
3.09288e-12
4.26153e-11
-1.34649e-10
-7.34956e-11
2.94257e-13
4.32856e-11
7.17979e-11
5.17603e-14
-2.43435e-11
-6.35957e-10
-8.26198e-10
-1.41062e-10
-2.52785e-11
-7.82543e-12
1.091e-11
2.68994e-11
8.01821e-11
9.44851e-11
1.76747e-11
2.50482e-11
3.79524e-11
-1.25914e-12
-6.13584e-11
-3.63135e-10
-3.03373e-10
7.80701e-11
9.78171e-11
1.27101e-12
1.82711e-10
4.50325e-10
6.34867e-10
7.1155e-10
3.88811e-10
-7.41936e-11
-7.49187e-12
-1.56793e-10
-1.99323e-10
-1.32557e-11
5.71375e-12
4.06589e-13
2.12518e-11
5.68084e-12
1.49564e-11
-3.49734e-11
3.10796e-11
6.77043e-11
1.00067e-10
2.28282e-10
6.6658e-11
-8.28875e-10
-9.04662e-10
-6.70285e-11
-1.4248e-10
-9.89083e-11
-1.68169e-12
-7.03925e-11
-5.11071e-10
-5.03051e-10
-5.88868e-11
4.5371e-11
1.70557e-11
5.565e-12
-4.44246e-12
-2.14173e-12
1.17543e-12
8.16945e-11
3.58958e-10
6.27469e-10
6.21818e-10
3.95661e-10
1.74441e-10
6.95468e-11
2.61288e-11
-1.0982e-11
-2.00121e-11
-1.38688e-11
-1.71337e-11
-2.0132e-11
1.12287e-11
6.15244e-11
2.63903e-11
-7.90472e-12
-4.29798e-12
-2.01323e-13
3.17253e-18
3.57723e-11
3.94264e-10
8.97547e-10
-3.04393e-10
-3.16934e-09
-3.99819e-09
-1.8929e-09
-2.88262e-10
-5.85842e-12
-5.70816e-14
-1.05055e-11
-1.07254e-10
-1.73888e-10
-6.03264e-11
2.01431e-12
5.52936e-12
7.22613e-11
1.77093e-10
2.591e-10
2.71269e-10
2.20505e-10
1.62593e-10
1.38073e-10
1.32411e-10
9.05792e-11
2.41394e-11
1.58767e-14
-2.69684e-12
-3.03153e-11
-3.25793e-11
-2.58165e-12
-9.12109e-11
-2.25241e-11
2.14793e-10
2.05331e-10
4.81948e-11
-1.30377e-10
-1.41851e-10
-1.35181e-11
3.57729e-11
3.90991e-11
6.05382e-10
9.44086e-10
-3.30882e-10
-1.58753e-09
-1.31425e-09
-6.97952e-10
-3.50071e-10
-1.604e-10
-6.82122e-11
-7.76298e-11
-8.1759e-11
-4.26603e-11
-7.36659e-12
-5.39944e-13
2.217e-11
1.9867e-10
5.35811e-10
7.26057e-10
5.04929e-10
1.81935e-10
6.23432e-11
4.70038e-11
2.88566e-11
4.71175e-13
2.44233e-11
-3.97024e-11
-3.21816e-10
-3.42977e-10
-6.05403e-11
-1.32349e-11
2.33539e-11
3.60585e-10
5.96847e-10
3.96911e-10
5.65596e-11
2.51753e-14
-1.53881e-13
-1.74884e-13
-5.90004e-13
-1.18726e-12
-5.66798e-13
9.55654e-13
1.77977e-12
2.68452e-12
4.03772e-12
4.31343e-12
4.00345e-12
5.75848e-12
3.64087e-12
-3.65732e-12
-5.21074e-12
-1.92573e-12
-1.30414e-12
-1.83039e-12
1.14291e-12
5.64942e-12
1.07496e-11
4.31606e-12
-3.77958e-11
-4.40142e-11
-3.89894e-11
-3.12039e-11
-2.71954e-11
-2.20804e-11
-1.72577e-11
-2.78526e-12
1.20618e-11
1.67689e-11
3.95397e-12
1.51675e-12
8.31148e-12
8.61831e-12
1.97198e-13
8.62082e-16
8.93948e-14
-2.64552e-12
-1.53553e-12
-1.92702e-12
2.7677e-12
5.2126e-11
1.16976e-10
9.62719e-11
5.34325e-11
2.11413e-11
1.31692e-11
1.76761e-11
8.50626e-11
2.43584e-10
4.77191e-10
8.23007e-10
1.36135e-09
1.86949e-09
1.92889e-09
1.29882e-09
2.58934e-10
-9.85441e-11
-6.83131e-11
-3.13404e-11
-1.57503e-10
6.79016e-11
3.09911e-10
-5.22925e-11
-4.19478e-10
-1.88124e-10
3.96183e-10
1.28255e-09
1.81498e-09
1.34042e-09
1.81956e-10
-1.37964e-10
4.13756e-13
3.19706e-10
7.70633e-11
-3.72298e-12
-1.0602e-12
-1.89942e-11
-1.02738e-11
-6.14323e-12
1.38059e-11
1.25004e-10
2.878e-10
2.50247e-10
8.24669e-11
-1.7045e-11
-3.04266e-11
-5.83018e-11
1.97361e-11
2.79427e-10
7.1387e-10
1.45872e-09
2.48727e-09
3.19288e-09
3.06983e-09
2.0265e-09
3.33748e-10
-2.0718e-10
-3.6544e-11
-1.058e-10
-6.32108e-11
8.81283e-10
1.63008e-09
8.42877e-10
-1.33302e-10
-1.27609e-10
4.0232e-10
1.29476e-09
2.08085e-09
1.78075e-09
5.24865e-10
-2.94289e-10
-2.50965e-11
-3.22792e-11
1.80727e-10
-4.96227e-11
-9.44607e-13
-2.24858e-11
-1.38181e-11
-2.72717e-12
8.45939e-12
6.97263e-11
1.40727e-10
1.17881e-10
2.06396e-11
-4.16294e-12
-5.0489e-13
-1.64276e-11
-1.9504e-11
1.30082e-10
4.5445e-10
1.07846e-09
1.75337e-09
1.73723e-09
1.14709e-09
4.81141e-10
-4.1071e-12
-6.92081e-11
-9.96943e-10
-2.14755e-10
-1.94423e-11
7.23333e-10
1.15882e-09
4.16002e-10
-7.10374e-11
-3.95965e-11
1.74983e-11
1.26088e-10
3.51255e-10
3.36661e-10
3.64705e-11
-5.64955e-11
-8.96044e-11
-6.81906e-10
2.48411e-10
1.51685e-11
-2.0689e-11
-2.92685e-13
-2.01135e-11
-1.56257e-12
4.63218e-12
5.40166e-11
8.24204e-11
3.32747e-11
7.39415e-13
-5.21827e-12
-3.69554e-11
-4.38243e-12
-1.79277e-11
6.9374e-11
4.36656e-10
1.26343e-09
2.00209e-09
1.50765e-09
6.56602e-10
1.85209e-10
-5.18275e-13
-8.14585e-10
-5.387e-09
-2.63814e-09
-1.32614e-13
8.05036e-10
1.36916e-09
3.94336e-10
-4.2173e-11
-9.47913e-12
7.54729e-15
5.41575e-13
3.5063e-11
4.91418e-11
-1.17756e-12
-4.26851e-12
-5.40714e-10
-2.17959e-09
-2.84258e-10
1.07376e-09
-9.75119e-11
-2.03101e-10
-1.69547e-11
-2.62601e-11
1.44949e-11
1.65266e-10
2.14394e-10
4.3085e-11
8.43582e-12
-4.04055e-11
-9.42685e-11
-2.97729e-11
-1.68964e-11
1.80113e-11
6.56799e-10
2.2424e-09
3.1999e-09
1.81376e-09
6.08658e-10
2.28448e-10
1.9966e-12
-8.79324e-10
-1.01774e-08
-8.32051e-09
-8.2656e-11
9.48716e-10
1.95407e-09
6.13773e-10
-1.09886e-11
-8.67915e-11
-2.14989e-11
3.82143e-11
1.01858e-10
5.84688e-11
-3.10544e-12
-2.82957e-11
-4.95174e-10
-2.43625e-09
-1.62199e-09
3.09232e-09
8.27567e-10
-6.03036e-10
-1.00196e-10
-7.69777e-11
1.36141e-11
5.06314e-10
7.11436e-10
2.30048e-10
9.69357e-12
-1.38432e-10
-3.5588e-10
-6.33033e-11
-2.40517e-11
-8.06037e-11
9.11653e-10
3.57491e-09
4.22177e-09
1.66444e-09
3.75218e-10
1.97058e-10
1.85991e-11
-5.9792e-10
-1.41866e-08
-1.66586e-08
-4.9478e-10
5.7387e-10
1.44952e-09
4.6947e-10
7.06496e-11
-1.32308e-10
-1.38135e-10
1.67516e-10
3.94931e-10
4.31998e-11
-1.17335e-10
-2.16541e-11
-6.06031e-10
-1.99285e-09
-2.71204e-09
2.77984e-09
3.87685e-09
1.17681e-09
-1.43853e-09
-2.47643e-13
-4.16088e-11
1.13434e-09
1.94212e-09
9.80335e-10
2.59526e-11
-2.03271e-10
-1.26474e-09
-4.1256e-10
-6.17349e-11
-3.34755e-10
1.1925e-09
4.83967e-09
4.32597e-09
1.30344e-09
2.05011e-10
1.04879e-10
2.57442e-11
-3.77243e-10
-1.6045e-08
-2.44805e-08
-1.44424e-09
5.69229e-11
4.47939e-10
2.10067e-10
1.16385e-10
-4.45502e-11
-6.13203e-11
4.47705e-10
8.51522e-10
-2.72949e-10
-1.14568e-09
-1.23894e-10
-5.21235e-10
-1.84437e-09
-2.47787e-09
4.15701e-10
5.21236e-09
3.80843e-09
-3.26599e-09
-7.22685e-10
-3.20161e-11
1.69535e-09
4.2237e-09
2.77576e-09
1.10453e-10
-5.24788e-11
-2.16241e-09
-2.43353e-09
-8.87478e-12
-7.99477e-10
1.43066e-09
5.47713e-09
3.67365e-09
7.61757e-10
1.21769e-10
6.37631e-11
6.5955e-12
-3.73927e-10
-1.52499e-08
-2.83492e-08
-2.95763e-09
2.05037e-10
1.3558e-12
7.16622e-11
1.65166e-10
6.22915e-11
9.4586e-11
7.63536e-10
1.42314e-09
-4.45024e-11
-2.37935e-09
-1.22827e-09
-5.06578e-11
-1.48713e-09
-1.93364e-09
-7.51098e-10
2.74988e-09
2.64818e-09
-2.51809e-09
-2.77996e-09
2.01217e-13
2.91908e-09
7.69481e-09
4.28169e-09
-6.94238e-11
-1.1083e-10
-1.50391e-09
-4.81399e-09
-1.25647e-09
-4.05773e-10
1.45685e-09
4.9598e-09
2.40415e-09
5.08363e-10
2.86501e-10
1.27444e-10
6.57522e-13
-7.6629e-10
-1.29048e-08
-2.68182e-08
-4.52474e-09
1.54972e-09
3.40598e-10
3.94346e-11
2.55259e-10
1.34213e-10
1.83734e-10
9.0274e-10
1.74949e-09
2.7916e-10
-2.63622e-09
-2.14511e-09
-9.67809e-11
-6.77763e-10
-1.32995e-09
-6.8372e-10
3.74708e-10
-2.19605e-10
-2.30122e-09
-1.41705e-09
5.27092e-11
5.28438e-09
1.07551e-08
4.39881e-09
5.13274e-12
-2.58692e-10
-3.25071e-10
-4.18734e-09
-3.80177e-09
-2.37603e-11
7.04896e-10
3.05719e-09
1.99052e-09
1.08132e-09
9.87676e-10
2.73603e-10
8.11165e-13
-1.68004e-09
-1.10295e-08
-2.20687e-08
-5.66469e-09
3.71811e-09
6.73441e-10
1.49189e-10
3.5043e-10
1.3914e-10
2.38788e-10
9.42205e-10
1.80373e-09
4.84214e-10
-2.83997e-09
-2.53665e-09
-2.3525e-10
-3.22376e-10
-8.02412e-10
-3.73711e-10
-1.61184e-10
-1.2011e-09
-4.80731e-09
3.04059e-09
4.60018e-10
5.32096e-09
9.29713e-09
3.06879e-09
1.15719e-10
-1.97292e-11
-1.1992e-10
-1.97852e-09
-4.70639e-09
-9.54576e-10
5.84189e-11
1.90654e-09
2.81186e-09
2.28498e-09
1.51872e-09
3.28279e-10
-1.01714e-11
-2.37237e-09
-1.0687e-08
-1.7995e-08
-5.59788e-09
3.4627e-09
2.07236e-10
2.95964e-10
2.98934e-10
1.3567e-10
2.63185e-10
7.51919e-10
1.35101e-09
7.28073e-10
-2.65009e-09
-3.26711e-09
-4.83618e-10
-1.91583e-10
-5.53617e-10
-2.32611e-10
-8.08276e-11
-6.41295e-10
-3.78325e-09
2.61613e-09
7.2332e-10
2.42335e-09
3.82676e-09
9.61839e-10
3.22948e-11
-5.99197e-12
-2.48206e-10
-1.60524e-09
-4.56764e-09
-2.62628e-09
6.72041e-12
1.1294e-09
3.09427e-09
2.59996e-09
1.3897e-09
3.71772e-10
-5.76527e-13
-1.91297e-09
-9.72608e-09
-1.28028e-08
-2.83896e-09
1.27481e-09
7.45534e-11
3.78185e-11
1.30733e-10
1.47816e-10
2.99763e-10
4.56197e-10
4.98331e-10
5.20699e-10
-1.31261e-09
-3.65909e-09
-1.37909e-09
-2.94689e-12
-2.97807e-10
-1.4065e-10
-1.30685e-10
-4.6214e-10
-7.40581e-10
3.3232e-10
8.46897e-11
2.19697e-10
2.3342e-10
3.34444e-11
3.88654e-14
8.0888e-12
-1.16653e-10
-1.89532e-09
-6.01879e-09
-5.00854e-09
-1.34073e-10
3.25406e-10
2.15715e-09
1.98271e-09
1.17735e-09
5.24199e-10
-1.07463e-11
-8.76214e-10
-6.87346e-09
-7.23985e-09
-1.10965e-09
1.0919e-09
7.69256e-10
1.18677e-11
2.81107e-10
5.14338e-10
5.396e-10
2.73047e-10
2.11169e-11
2.09834e-11
-1.66672e-10
-2.37968e-09
-2.3723e-09
-2.83862e-10
-5.6871e-11
-9.51996e-11
-2.68707e-10
-4.17728e-10
-9.63429e-11
2.02909e-11
5.50109e-11
2.20822e-10
1.69971e-10
1.44025e-11
-5.62679e-16
3.2847e-14
-9.94842e-13
-1.62741e-09
-8.24352e-09
-8.22035e-09
-7.98451e-10
4.66189e-12
9.69735e-10
1.44993e-09
1.32687e-09
8.22987e-10
1.15061e-11
-2.17327e-10
-4.94772e-09
-6.67047e-09
-1.65658e-09
9.66391e-10
2.59833e-10
4.22219e-10
1.73817e-09
1.48429e-09
5.57746e-10
8.66242e-11
6.23581e-12
6.20505e-11
-1.40773e-13
-7.04398e-10
-2.16718e-09
-8.43122e-10
-1.63229e-11
-4.64242e-11
-2.37858e-10
-3.45774e-10
-6.50133e-11
7.19692e-11
2.48659e-10
5.05583e-10
2.99078e-10
1.7959e-11
-5.20573e-13
-5.90963e-12
-6.85048e-12
-1.45651e-09
-9.86228e-09
-1.10166e-08
-1.71369e-09
3.15654e-11
5.8521e-10
1.82067e-09
2.15118e-09
1.13692e-09
6.89978e-11
-1.50128e-11
-2.1439e-09
-4.80711e-09
-1.41894e-09
1.95602e-10
4.23895e-10
3.16419e-09
2.96607e-09
6.97038e-10
1.68612e-11
1.0294e-12
-2.41271e-12
-9.9859e-12
-1.06786e-11
-1.06808e-10
-1.35233e-09
-1.3691e-09
-2.20578e-10
-7.63969e-13
-1.38897e-10
-1.84023e-10
-7.37399e-11
1.40419e-10
3.0074e-10
4.60307e-10
3.31172e-10
4.76762e-11
-1.55476e-13
-1.65562e-11
-7.45903e-12
-1.42213e-09
-1.03123e-08
-1.30003e-08
-2.41239e-09
5.93225e-12
1.15288e-09
3.16355e-09
2.84714e-09
9.01736e-10
2.43954e-11
-2.93277e-11
-4.77223e-10
-6.6642e-10
-2.35596e-11
4.51084e-10
4.21242e-09
4.45339e-09
5.62802e-10
2.71936e-10
9.09956e-10
3.71916e-10
-2.75287e-11
-4.04703e-12
-4.97831e-14
-1.34012e-11
-5.47194e-10
-1.55269e-09
-8.74209e-10
-1.06046e-10
-1.22399e-11
-3.70508e-12
-7.50139e-12
9.01881e-11
3.31432e-10
6.91648e-10
5.02293e-10
7.30195e-11
-4.95435e-13
-1.83994e-11
-4.29438e-12
-1.25327e-09
-8.01273e-09
-1.03249e-08
-1.75835e-09
7.67557e-12
1.92491e-09
3.3871e-09
1.80299e-09
2.46975e-10
3.83664e-13
-5.22628e-11
-2.8107e-11
-6.37044e-11
1.41128e-10
2.80726e-09
3.76138e-09
5.0472e-10
1.36672e-10
7.66893e-10
2.03015e-09
1.38156e-09
2.02526e-10
-1.12057e-10
-4.12032e-11
-2.30223e-11
-5.84591e-11
-6.02038e-10
-1.01347e-09
-5.61637e-10
-9.73653e-11
-1.67398e-10
-3.53094e-12
1.45621e-11
3.81863e-10
7.81354e-10
3.29154e-10
2.51705e-12
-6.31675e-12
-5.3042e-11
-2.60155e-11
-1.16921e-09
-4.04776e-09
-3.45875e-09
-2.18576e-10
2.19825e-11
7.99253e-10
7.28007e-10
1.94461e-10
2.19605e-11
-1.08849e-13
-1.1966e-11
-8.39411e-11
-5.34686e-11
7.555e-10
8.64263e-10
1.0548e-11
2.10406e-10
4.16929e-10
3.93354e-10
2.34325e-12
2.52874e-11
1.75873e-10
-1.65279e-09
-3.06733e-09
-1.14669e-09
-1.0791e-10
-4.1874e-11
-2.03672e-10
-4.01024e-10
-4.02497e-10
-3.68144e-10
-2.0212e-10
-4.88456e-12
2.2409e-11
1.03824e-10
3.4177e-11
6.33142e-14
1.92589e-13
-9.98514e-12
-3.74073e-10
-1.62333e-09
-1.98523e-09
-3.86699e-10
2.44797e-10
2.92975e-11
5.85048e-12
2.42073e-11
2.23401e-11
1.3004e-11
-1.16733e-12
-1.2518e-11
-2.99023e-11
4.52922e-12
7.38789e-11
6.28687e-14
1.88781e-10
3.34114e-10
1.8197e-11
5.01293e-10
1.73203e-09
1.02793e-09
6.6777e-13
-1.8758e-09
-8.52921e-09
-5.35824e-09
-5.68539e-10
-4.13149e-12
2.16106e-10
4.3554e-10
5.19007e-12
-5.96192e-11
-8.65372e-11
-6.2835e-11
1.58676e-11
7.28874e-11
2.49063e-11
1.93767e-12
2.30898e-11
-1.26818e-10
-8.09843e-10
-1.83721e-09
-1.62496e-09
-3.13861e-10
2.63954e-10
1.90469e-10
3.5738e-11
6.31781e-12
6.48059e-11
6.24653e-11
-1.52322e-11
-1.51894e-11
-1.03305e-12
-1.2677e-11
-3.50689e-12
5.03398e-11
8.96433e-11
1.21185e-11
1.03371e-10
7.37863e-10
1.53068e-09
1.09926e-09
-2.22476e-11
-2.85495e-10
-4.46418e-09
-4.39776e-09
-4.93454e-10
1.46567e-12
4.03701e-10
5.55201e-10
1.4378e-10
-5.65292e-13
-4.60208e-11
-9.39836e-12
-8.98794e-12
1.48967e-10
4.44955e-10
2.49243e-10
4.40795e-13
-1.51531e-10
-1.05485e-09
-1.1676e-09
-3.90657e-10
-3.74863e-11
4.9315e-11
2.70547e-10
3.58479e-10
1.20237e-10
1.04273e-11
-1.5165e-13
-1.81988e-12
-1.87474e-11
-6.85868e-11
-7.06007e-11
1.02783e-11
1.26458e-11
5.66702e-11
5.77807e-10
1.30864e-09
1.49283e-09
1.07806e-09
3.29973e-10
-2.06453e-11
-9.88832e-11
-1.15084e-09
-1.42198e-09
-1.8508e-10
1.6802e-11
5.55734e-11
1.09173e-10
1.5253e-11
7.04584e-12
-4.22524e-12
-8.79888e-11
-1.12751e-11
3.52994e-13
4.98425e-11
4.4898e-11
8.37625e-12
-2.64355e-10
-1.83748e-09
-1.78286e-09
-2.19343e-10
-3.24792e-12
-1.28452e-13
4.01722e-11
-1.5624e-11
-1.09157e-10
-2.45426e-11
2.61081e-12
3.19141e-12
4.30954e-12
1.20572e-12
3.374e-12
8.51318e-11
3.40176e-10
5.12717e-10
4.56284e-10
3.82342e-10
3.31537e-10
1.88589e-10
2.26413e-11
-1.46755e-12
-9.19006e-11
-1.33196e-10
-1.45763e-11
-2.39372e-11
4.98892e-11
3.20112e-10
3.29022e-10
6.95523e-11
3.43419e-11
1.11853e-12
5.53849e-13
7.68193e-12
3.50913e-11
8.90709e-11
5.78694e-11
-2.66239e-10
-1.26865e-09
-3.10931e-09
-3.70262e-09
-1.74559e-09
-2.60326e-10
-9.35536e-12
-3.87567e-14
-2.07e-14
-6.30622e-13
4.18511e-12
5.01529e-11
1.32541e-10
1.78648e-10
1.5026e-10
7.22255e-11
1.13486e-11
1.09189e-12
1.06611e-11
2.05652e-12
2.91796e-11
1.16495e-10
5.49632e-11
6.20874e-14
-8.19499e-11
-3.2019e-10
-1.27142e-10
-2.64994e-11
-1.89678e-10
1.72811e-10
7.07053e-10
6.51298e-10
2.49343e-10
4.54514e-10
5.84616e-11
-1.22546e-11
3.3295e-13
4.9713e-11
2.08356e-10
-9.48416e-12
-5.07192e-10
-5.93537e-10
-4.14939e-10
-2.84913e-10
-1.64221e-10
-4.98509e-11
-3.6231e-12
4.47702e-12
1.245e-12
-1.04908e-11
-1.09759e-11
2.33689e-12
1.32212e-12
8.58506e-11
2.58773e-10
2.07696e-10
2.72958e-11
-8.26401e-12
-1.76476e-13
8.58529e-15
2.94795e-12
3.39751e-12
7.59327e-12
-4.85425e-12
-2.72569e-10
-4.53532e-10
-1.73691e-10
-4.35471e-12
-6.78135e-11
4.10209e-10
1.22997e-09
1.52035e-09
1.10324e-09
-9.24739e-14
-5.4734e-13
-2.49777e-13
3.29636e-13
3.60358e-12
3.76878e-12
2.20613e-12
-4.91294e-13
-6.53125e-13
2.26357e-12
6.42647e-12
8.00369e-12
2.17084e-12
-1.23606e-11
1.94674e-12
5.18103e-12
4.57276e-12
8.28643e-12
2.66511e-11
2.16991e-11
-6.40272e-14
-6.29373e-13
-1.23184e-12
-7.22204e-12
-9.89203e-12
-7.091e-12
-5.97001e-12
-8.61386e-12
-1.1137e-11
1.01102e-13
3.43265e-11
4.75362e-11
2.57816e-11
4.3325e-12
1.99239e-14
1.09788e-12
7.16948e-13
4.12444e-13
2.49367e-13
2.87446e-12
-2.41694e-11
-1.35551e-11
-8.35497e-12
3.38534e-11
9.78618e-11
8.02849e-11
3.19626e-11
-3.53475e-11
-5.58932e-11
-1.14303e-12
9.65544e-11
2.15972e-10
3.24776e-10
4.33125e-10
8.88227e-10
1.38333e-09
1.82644e-09
2.38121e-09
2.94525e-09
1.76854e-09
-2.15698e-10
-1.0924e-10
-1.38129e-11
-8.29753e-11
-2.91727e-10
-3.84902e-10
-3.11865e-10
-1.84133e-10
1.35681e-10
9.06598e-10
1.83859e-09
1.83796e-09
8.84316e-10
1.30233e-10
-4.47587e-12
2.19868e-12
1.03476e-10
6.49934e-11
4.59251e-13
-2.93523e-12
-3.89787e-11
-3.0328e-11
-2.32053e-11
3.11184e-11
1.16612e-10
9.78828e-11
3.28758e-11
-6.37139e-11
-1.40389e-10
-1.06393e-10
-3.54427e-12
1.67395e-10
4.31205e-10
8.57492e-10
1.51962e-09
2.05634e-09
2.30226e-09
2.71274e-09
3.53431e-09
2.69368e-09
-1.69993e-10
-1.67618e-10
-1.50545e-11
-1.20763e-11
-2.77345e-10
-5.69068e-10
-4.76069e-10
-2.14231e-10
2.17545e-10
1.128e-09
2.32653e-09
2.48386e-09
1.26399e-09
1.47482e-10
-7.74198e-11
-9.31379e-14
4.93694e-11
2.63144e-10
5.7963e-11
-5.59782e-13
-9.77723e-13
-1.00935e-11
-6.09363e-12
1.57179e-11
8.459e-11
9.52732e-11
5.65437e-11
1.95641e-12
-6.23833e-11
-6.29018e-11
-2.81154e-11
5.8192e-11
2.50759e-10
5.91733e-10
9.42928e-10
9.18385e-10
6.3226e-10
5.4442e-10
8.10406e-10
7.40966e-10
-1.01541e-10
-1.01039e-10
-1.37597e-09
-2.46016e-10
-2.85324e-11
-2.25301e-10
-1.63544e-10
-3.05512e-11
4.39712e-11
2.49126e-10
7.33448e-10
8.72816e-10
3.30741e-10
-2.6425e-11
-4.53977e-13
-2.03066e-10
-1.58392e-10
8.36348e-10
6.87266e-10
-8.16004e-11
-1.85133e-10
-8.35082e-14
-2.84775e-14
4.6775e-12
5.91538e-11
9.5634e-11
7.9897e-11
4.84457e-11
-1.55923e-11
-4.37384e-11
-2.96096e-11
1.41877e-11
1.63422e-10
5.36024e-10
8.3153e-10
5.57385e-10
1.40546e-10
4.21201e-11
1.90805e-10
4.11438e-10
-7.55307e-11
-5.14728e-10
-5.1985e-09
-1.78836e-09
-7.69904e-12
-9.72441e-11
-9.82945e-11
-6.21451e-12
3.21521e-14
1.46502e-11
2.11172e-10
4.10156e-10
1.59029e-10
-1.26107e-11
-8.11052e-11
-8.62609e-10
-1.1185e-09
1.40316e-09
2.89878e-09
-2.47524e-10
-1.90415e-09
-7.49807e-11
-3.48812e-13
2.81166e-12
6.47675e-11
1.19789e-10
1.14611e-10
1.0719e-10
5.70024e-11
-6.41737e-11
-8.76372e-11
-9.62739e-12
1.80255e-10
6.39566e-10
8.87674e-10
3.82911e-10
4.09865e-12
3.07665e-11
4.31743e-11
5.39903e-10
-1.10393e-10
-1.40339e-10
-7.7185e-09
-5.52086e-09
-1.00271e-10
-1.86925e-11
-1.10354e-10
-2.41743e-11
2.54309e-12
1.51065e-11
1.91797e-10
4.68726e-10
2.44357e-10
-4.19267e-11
-1.25043e-11
-7.16793e-10
-1.73256e-09
8.38478e-10
5.78703e-09
1.68032e-09
-6.17777e-09
-1.24619e-09
-4.58659e-13
-2.74047e-12
1.02792e-10
1.79099e-10
1.56205e-10
1.52298e-10
1.87026e-10
5.32795e-12
-1.93469e-10
-6.08949e-11
2.41552e-10
6.8862e-10
6.60293e-10
7.76076e-11
9.59703e-11
1.68928e-10
1.31105e-11
5.47535e-10
-6.16514e-11
-1.27136e-10
-9.91468e-09
-1.09059e-08
-4.10551e-10
4.54579e-11
5.39945e-11
-8.74709e-12
2.52178e-11
1.20802e-10
4.97827e-10
8.97356e-10
4.09296e-10
-2.6631e-10
-5.93426e-11
-2.79296e-10
-1.53874e-09
-6.73219e-10
5.82416e-09
7.707e-09
-6.62911e-09
-7.08556e-09
-6.60814e-11
-3.63464e-11
1.59847e-10
2.69548e-10
2.21885e-10
1.44376e-10
1.68096e-10
1.65142e-10
-7.91081e-11
-7.65868e-11
4.93961e-10
9.59883e-10
4.3618e-10
1.44034e-11
4.30948e-10
2.84629e-10
4.2703e-11
4.68843e-10
-1.76849e-11
-8.38039e-10
-1.42202e-08
-1.47037e-08
-8.16706e-10
2.8295e-11
1.74394e-10
7.20301e-11
9.04941e-11
3.73328e-10
1.10942e-09
1.65211e-09
4.73504e-10
-1.40154e-09
-9.01244e-10
-7.65819e-13
-8.58104e-10
-1.32537e-09
2.66618e-09
1.12463e-08
-1.00709e-11
-1.69243e-08
-1.13676e-09
-5.41016e-11
2.18362e-10
3.78206e-10
2.3275e-10
7.58364e-11
5.71749e-11
1.06622e-10
2.70628e-10
4.50801e-10
1.30028e-09
1.6619e-09
4.33148e-10
5.55781e-11
5.88596e-10
3.24397e-10
1.0785e-10
2.91468e-10
-5.65243e-14
-2.78781e-09
-1.94528e-08
-1.64962e-08
-1.1443e-09
1.63206e-12
1.37234e-10
1.2502e-10
1.84611e-10
5.61557e-10
1.56081e-09
2.32248e-09
5.52699e-10
-3.02681e-09
-3.15146e-09
-4.48415e-10