/*--------------------------------*- C++ -*----------------------------------*\
| =========                 |                                                 |
| \\      /  F ield         | OpenFOAM: The Open Source CFD Toolbox           |
|  \\    /   O peration     | Version:  5.0                                   |
|   \\  /    A nd           | Web:      www.OpenFOAM.org                      |
|    \\/     M anipulation  |                                                 |
\*---------------------------------------------------------------------------*/
FoamFile
{
    version     2.0;
    format      ascii;
    class       volScalarField;
    location    "50.4676134421789371";
    object      UUVMean;
}
// * * * * * * * * * * * * * * * * * * * * * * * * * * * * * * * * * * * * * //

dimensions      [0 3 -3 0 0 0 0];

internalField   nonuniform List<scalar> 
60000
(
-8.81146e-14
-1.00061e-12
-2.02114e-12
-6.31262e-13
9.7097e-14
7.23818e-16
1.43449e-14
3.71883e-14
7.86335e-14
2.83278e-15
-3.64507e-13
-1.59551e-13
-3.75579e-14
-5.62248e-14
-1.84497e-13
-1.59874e-13
-1.16785e-14
1.31291e-13
1.91387e-12
8.81368e-12
2.41916e-11
2.06052e-11
-6.12124e-12
-7.81173e-12
3.45725e-11
7.02632e-11
3.75566e-11
-6.93439e-12
-7.04045e-12
-2.31301e-12
-2.15819e-12
-6.68115e-12
-1.26948e-11
-7.59225e-12
-5.93717e-13
3.60694e-13
-6.92912e-15
-3.61745e-13
-7.87688e-13
-4.03206e-13
-1.78403e-11
-2.898e-12
-4.88324e-12
7.87273e-12
7.41314e-12
1.73357e-13
-1.22258e-13
-9.80835e-13
7.11021e-13
-1.91932e-11
-4.67721e-11
-2.81353e-11
-3.66045e-12
6.63336e-13
2.25311e-12
6.73555e-12
2.04606e-11
4.01758e-11
2.6809e-11
-4.26896e-11
-1.28002e-10
-1.90644e-10
-6.78815e-11
5.70715e-10
1.89454e-09
3.16084e-09
2.59305e-09
7.17992e-10
-1.53553e-10
-7.57882e-11
-9.28448e-12
-1.05784e-11
-1.10978e-10
-2.02851e-10
-1.0389e-10
-2.70179e-12
2.33843e-12
9.14147e-13
-1.98785e-11
-4.25212e-11
-1.08432e-10
-3.45884e-11
-1.5831e-12
9.15712e-13
8.03728e-12
3.42855e-12
9.98036e-16
-1.10924e-12
3.50662e-12
-1.94484e-11
-9.48957e-11
-1.03005e-10
-2.44179e-11
1.26566e-13
6.21062e-12
4.14024e-11
1.10542e-10
1.21435e-10
3.00054e-11
-6.16543e-11
-1.58963e-10
-3.23871e-10
-1.55449e-10
8.42242e-10
2.31758e-09
3.31925e-09
2.50826e-09
7.05961e-10
-1.92082e-10
-1.2255e-10
-1.57937e-11
9.48436e-12
1.70208e-12
-9.54101e-11
-1.48236e-10
-2.81159e-11
5.12285e-13
7.24013e-13
1.49727e-11
-6.4072e-11
-8.36555e-11
-2.53539e-11
-3.66249e-14
1.90128e-12
1.86255e-11
2.79344e-11
6.76317e-12
-8.37544e-13
1.16482e-13
1.72714e-13
-6.23425e-11
-8.10727e-11
-7.12321e-12
-5.38929e-13
1.33388e-12
1.88118e-11
9.87263e-11
5.13506e-11
1.76044e-13
-2.07762e-11
-9.29121e-12
-7.17722e-11
-8.9446e-11
6.52568e-10
1.37359e-09
1.44144e-09
7.54291e-10
5.6764e-11
-7.2538e-11
-2.62686e-12
-3.00129e-11
-1.58915e-12
8.34449e-13
-1.10712e-12
-1.17189e-11
-4.08728e-13
-3.62406e-13
5.36673e-11
1.82143e-13
-6.57555e-12
-5.37595e-11
-2.70751e-11
-4.86213e-12
5.56597e-12
5.37132e-11
8.31054e-11
4.628e-11
-5.21999e-12
2.52857e-13
4.39104e-13
-3.19916e-11
-1.11506e-10
-7.75166e-12
-1.47519e-11
2.12627e-11
6.0587e-12
1.32004e-10
4.46609e-11
1.49845e-11
-4.22246e-10
-6.40793e-10
-1.33852e-11
-9.96853e-11
8.33699e-10
1.40279e-09
9.86782e-10
3.92465e-10
1.08539e-11
-5.16086e-11
-1.63015e-11
-1.67213e-10
-8.90557e-11
1.14587e-11
-5.71762e-12
-2.18142e-11
-3.53278e-11
-4.41524e-11
1.78124e-10
1.03461e-10
8.40844e-13
-9.83422e-12
-8.03479e-11
-4.40729e-12
-2.13099e-12
3.89278e-11
8.5304e-11
7.38034e-11
1.78891e-11
8.21979e-12
1.23316e-11
-1.44003e-12
-1.20978e-10
-7.88026e-11
-4.35586e-12
5.29431e-12
4.51899e-11
4.37562e-10
2.00615e-10
1.29257e-11
-9.21181e-10
-2.77172e-09
-4.37294e-10
-1.49505e-10
1.29896e-09
1.7055e-09
7.31269e-10
2.76656e-10
3.97256e-11
-1.3617e-10
-9.72425e-11
-2.2193e-12
-7.04593e-11
-4.3567e-11
-2.18431e-11
-8.84165e-11
-1.04754e-10
-6.11834e-11
1.01732e-10
2.22382e-10
2.38429e-11
6.23183e-13
-3.36776e-11
-3.43877e-11
-7.06725e-13
2.46604e-12
2.33436e-11
3.70108e-11
3.82609e-11
4.95646e-11
8.23116e-11
-8.09035e-12
-2.01139e-12
-8.0307e-11
-1.81125e-11
-4.59591e-13
3.29527e-10
1.24861e-09
5.69976e-10
1.57067e-12
-1.10012e-09
-6.27578e-09
-2.47861e-09
-6.39168e-11
1.12931e-09
1.11921e-09
3.96327e-10
2.4467e-10
6.73474e-11
-1.33555e-10
-2.82715e-10
-2.54169e-10
-5.25945e-11
-1.00565e-11
-1.00252e-10
-2.23903e-10
-2.63062e-10
-1.04997e-10
2.84528e-11
1.42197e-10
9.86117e-11
3.39849e-11
-4.2473e-13
-2.24251e-12
-1.42283e-12
1.86246e-12
1.24129e-12
2.73964e-13
4.08204e-12
4.08157e-11
1.27988e-10
-4.74666e-11
-3.15162e-10
-8.79503e-12
-7.79269e-11
-6.5605e-11
1.27085e-09
2.47916e-09
1.00984e-09
2.00838e-11
-7.5183e-10
-8.29279e-09
-6.7584e-09
-8.29039e-11
3.04077e-10
3.90076e-10
3.09865e-10
3.55411e-10
1.0411e-10
-1.22884e-10
-2.56294e-10
-3.91709e-10
-4.23366e-10
-2.09977e-10
-2.3348e-12
-2.4702e-10
-4.59862e-10
-2.0232e-10
1.68834e-11
6.57149e-11
8.63779e-11
6.85855e-11
2.51423e-11
-1.86527e-11
-1.78446e-12
1.85563e-12
2.35319e-11
1.11104e-13
-2.63132e-12
2.74956e-13
7.27526e-12
-2.69998e-10
-1.58056e-09
-5.76134e-10
-1.22675e-10
-1.65017e-10
2.55047e-09
3.35945e-09
1.12741e-09
4.73927e-11
-2.08131e-10
-6.38136e-09
-1.03363e-08
-1.03791e-09
2.9595e-11
2.56245e-11
3.09865e-10
4.9802e-10
1.12504e-10
-1.37558e-10
-2.31655e-10
-3.00283e-10
-3.61752e-10
-4.80104e-10
-2.905e-10
-6.67133e-12
-3.66237e-10
-3.68286e-10
-2.57854e-11
6.19831e-11
5.61709e-11
6.46114e-11
1.06333e-10
2.86797e-11
2.08931e-11
8.8226e-13
3.46057e-11
1.32965e-11
-1.56836e-11
-4.51199e-12
-7.43436e-12
-5.73357e-10
-3.20236e-09
-2.33986e-09
-4.38314e-11
3.11764e-11
3.3014e-09
3.21728e-09
8.92014e-10
4.32756e-11
-5.71904e-12
-2.37444e-09
-9.08201e-09
-2.54098e-09
1.03164e-09
1.50592e-10
3.0234e-10
5.3523e-10
6.33263e-11
-1.51407e-10
-2.04524e-10
-1.99923e-10
-1.50333e-10
-2.84995e-10
-4.20565e-10
-1.2113e-10
-4.97393e-11
-2.99491e-10
-1.78054e-10
3.98737e-12
4.0833e-11
1.77498e-11
1.0061e-10
1.28668e-10
3.79719e-11
2.97573e-12
1.37032e-11
4.67596e-12
-5.9239e-12
-5.3797e-13
-5.73966e-12
-2.29505e-10
-3.25788e-09
-4.30819e-09
-1.53e-10
2.61831e-10
2.95215e-09
2.82001e-09
7.93085e-10
3.10546e-11
-1.82347e-12
-2.97419e-10
-4.24628e-09
-3.0943e-09
2.6042e-09
6.83527e-10
1.58768e-10
3.43086e-10
-5.14947e-13
-1.25576e-10
-1.417e-10
-7.71925e-11
6.11768e-11
-7.92189e-11
-3.21772e-10
-1.38171e-10
-7.57861e-12
-1.50748e-10
-1.76212e-10
-7.98791e-11
-1.03525e-11
-7.35528e-12
1.08911e-11
9.2842e-11
2.06659e-11
5.10614e-14
3.94125e-12
3.25256e-12
-1.74884e-14
-2.64352e-13
-1.00979e-11
-1.20184e-11
-1.63951e-09
-4.41509e-09
-7.7647e-10
7.75434e-11
1.91445e-09
2.35046e-09
7.71271e-10
4.17203e-11
-1.24816e-13
-1.97118e-11
-1.06913e-09
-2.19111e-09
2.05258e-09
7.60892e-10
1.63515e-11
9.07943e-11
-1.65071e-11
-6.97106e-11
-5.92788e-11
8.39952e-11
3.49343e-10
1.49495e-10
-2.97923e-10
-1.51627e-10
-9.7198e-12
-1.32633e-10
-1.16848e-10
-5.59623e-11
-1.92594e-11
-1.08418e-12
-1.04754e-12
4.93651e-12
4.70256e-12
2.46725e-11
9.66157e-11
6.43735e-11
1.43973e-12
-6.45926e-14
-9.91871e-12
-5.75522e-12
-5.83102e-10
-3.19921e-09
-1.34624e-09
1.11e-11
7.22336e-10
1.41905e-09
7.18984e-10
1.38469e-10
-2.09382e-12
-1.18177e-11
-3.02062e-10
-8.04078e-10
5.15792e-10
4.84566e-10
1.00465e-10
9.87563e-13
-4.54551e-12
-2.99885e-11
-1.8324e-12
1.74469e-10
5.51497e-10
4.88752e-10
-3.01334e-10
-2.97134e-10
-3.04644e-12
-8.61271e-11
-6.94627e-11
-3.30842e-11
-1.94798e-11
-5.84051e-12
-4.42472e-12
2.13491e-12
1.06318e-12
8.42813e-11
2.34426e-10
1.85214e-10
4.06844e-11
9.52178e-13
-3.27342e-12
-3.32997e-11
-1.66613e-10
-2.46799e-09
-2.16991e-09
5.79265e-11
6.49853e-11
6.71947e-10
8.71706e-10
4.93481e-10
3.62993e-11
-4.63426e-12
-2.13275e-10
-2.30329e-10
8.08729e-11
5.91686e-10
4.68847e-10
3.58897e-11
-9.95666e-13
-1.36545e-11
2.46916e-11
1.27463e-10
3.92724e-10
5.79834e-10
-2.44955e-10
-6.14464e-10
-7.47282e-11
-2.47864e-11
-2.51021e-11
-4.70491e-12
-2.68328e-11
-1.2762e-11
-1.48491e-13
-2.62308e-15
1.29954e-11
9.53039e-11
1.61953e-10
1.31289e-10
5.66719e-11
7.23467e-12
5.18726e-12
-1.05634e-11
-6.20577e-11
-2.03347e-09
-3.36781e-09
-3.15453e-10
2.01334e-11
5.78412e-10
1.53061e-09
9.09526e-10
7.76982e-11
-3.85057e-12
-3.15178e-10
-6.42775e-10
-1.55413e-11
5.80079e-10
2.30612e-10
3.28075e-12
8.99574e-12
8.94722e-12
1.73847e-11
2.78864e-11
1.1198e-10
3.21009e-10
-2.07506e-10
-1.12309e-09
-3.67277e-10
-1.7025e-12
-2.62425e-12
1.81879e-11
-8.48571e-12
-1.36897e-11
-1.97456e-11
-1.45132e-11
5.7673e-11
1.67254e-10
1.23884e-10
3.48105e-11
5.62058e-12
1.65159e-12
4.84114e-13
-1.32589e-13
-1.60405e-10
-1.82825e-09
-3.49973e-09
-6.17808e-10
1.8886e-11
9.65811e-10
1.75557e-09
6.09346e-10
-1.47671e-12
-6.64575e-11
-1.27774e-11
-3.21113e-10
-9.48725e-11
2.30026e-10
7.52771e-11
3.77422e-12
1.24801e-12
3.53437e-12
7.98313e-12
3.77768e-12
1.22497e-11
9.89204e-11
-2.34243e-10
-1.52759e-09
-1.23351e-09
-1.11363e-10
-1.11808e-13
2.19074e-11
4.62234e-12
-5.66413e-12
-3.15973e-11
-4.26821e-11
1.17492e-10
3.6076e-10
2.22428e-10
2.33517e-11
-2.27595e-14
-6.80682e-13
1.37032e-14
-3.1067e-12
-3.38312e-10
-1.87777e-09
-2.40743e-09
-2.57794e-10
2.30186e-11
1.10459e-09
1.26337e-09
2.61069e-10
-1.29902e-11
-1.90558e-11
-5.4403e-11
-3.72323e-11
-2.44061e-12
8.47064e-11
5.2816e-11
6.39232e-11
2.76968e-10
1.97224e-10
2.28646e-10
1.38089e-10
7.31617e-12
8.99074e-12
-2.15401e-10
-1.22893e-09
-2.03475e-09
-8.81551e-10
-5.52594e-11
3.79291e-13
2.64373e-12
-7.18824e-14
-1.61395e-11
-9.77383e-12
2.07276e-10
5.76261e-10
3.18178e-10
8.18127e-12
-1.94826e-11
-5.38148e-11
-2.6529e-12
-4.35696e-11
-4.83116e-10
-1.63726e-09
-1.15443e-09
-2.44854e-12
1.19287e-10
1.06786e-09
8.99721e-10
1.09737e-10
-1.6818e-11
-1.619e-12
-7.33366e-11
-2.45408e-10
1.84036e-10
5.95517e-10
4.9947e-11
1.73405e-10
8.4846e-11
4.4981e-10
3.88415e-10
1.16602e-10
8.60019e-11
9.9995e-12
-1.97951e-12
-3.07493e-10
-1.23523e-09
-1.56817e-09
-6.11718e-10
-3.24889e-11
1.97333e-12
-4.88324e-13
-1.4137e-11
-2.84748e-11
2.66057e-10
5.98663e-10
1.07407e-10
4.20057e-11
-1.19447e-10
-2.74152e-10
-2.259e-11
-1.26363e-10
-4.73399e-10
-8.02536e-10
-3.19249e-10
1.19559e-11
1.53705e-10
6.88257e-10
5.90661e-10
9.75421e-11
-8.46328e-12
-3.36573e-12
-8.05468e-12
-5.25808e-11
3.86597e-11
1.45693e-11
2.5436e-10
1.90204e-10
1.11852e-10
2.83557e-11
4.90165e-10
3.29107e-10
1.15007e-11
5.98581e-11
-4.52022e-10
-1.32614e-10
-9.89436e-11
-6.11078e-10
-7.76148e-10
-3.57035e-10
-5.58374e-11
-6.77227e-11
-6.74779e-12
-7.89625e-11
3.31961e-10
3.60652e-10
1.69128e-11
1.82802e-11
-7.39593e-12
-3.14032e-11
-3.22641e-12
-2.57683e-10
-5.64296e-10
-2.51334e-10
2.79078e-11
3.85632e-12
8.25593e-11
3.00115e-10
3.36039e-10
1.18083e-10
2.26298e-13
-2.97711e-12
-2.29334e-11
-1.75908e-11
1.06348e-11
9.31842e-11
8.76847e-11
8.20275e-12
5.76041e-11
3.78769e-10
7.23001e-10
6.09713e-10
1.11939e-10
3.64865e-12
-4.63916e-10
-6.38056e-10
-9.00665e-11
-2.7222e-11
-1.42421e-10
-1.77639e-10
-1.47111e-10
-2.17104e-12
-1.56642e-13
-3.43823e-12
3.36158e-12
9.83095e-12
1.17446e-11
3.5275e-11
-1.46873e-11
-2.21738e-10
-2.66757e-10
-2.50334e-10
-1.93266e-10
-3.91245e-11
1.49718e-11
4.50244e-13
1.86175e-11
9.47906e-11
2.23952e-10
2.64808e-10
1.08961e-10
-3.89124e-12
-2.87381e-12
-6.52551e-11
-8.49772e-11
-4.41084e-12
3.03688e-11
6.5719e-12
5.30182e-12
5.65833e-11
1.80127e-10
3.14314e-10
1.91527e-10
-3.02516e-11
-3.10742e-11
-2.53166e-10
-9.67173e-11
-2.14091e-12
-1.11766e-12
3.06543e-12
1.03057e-12
1.34258e-11
-6.32706e-11
-2.57965e-11
1.20039e-13
2.42511e-11
2.94681e-11
7.39961e-13
-2.4136e-11
-3.05756e-10
-3.31581e-10
-4.22244e-11
-1.56193e-11
6.41754e-13
3.28822e-12
1.48009e-11
3.54587e-11
3.90445e-11
4.94608e-12
1.37115e-11
1.40181e-11
-3.55579e-13
-3.74023e-11
-1.65478e-10
-1.14064e-10
4.12027e-11
3.48749e-11
3.81644e-12
9.22347e-11
2.04901e-10
2.84034e-10
3.08772e-10
1.49438e-10
-3.6258e-11
-2.05647e-12
-7.84407e-11
-7.89023e-11
-2.7167e-12
1.84356e-12
2.31977e-13
1.13078e-11
3.82836e-12
3.6769e-12
-1.4949e-11
1.63996e-11
2.9099e-11
4.55639e-11
1.00356e-10
-5.8238e-14
-3.87441e-10
-3.55511e-10
-1.65814e-11
-7.06138e-11
-3.57356e-11
-4.21352e-13
-4.45924e-11
-2.39726e-10
-2.01118e-10
-1.53683e-11
1.85356e-11
6.6951e-12
2.10507e-12
-2.00755e-12
-6.14486e-13
1.44916e-12
4.52163e-11
1.70824e-10
2.78755e-10
2.63888e-10
1.61939e-10
6.97841e-11
2.84941e-11
1.01712e-11
-5.71935e-12
-8.38754e-12
-5.89075e-12
-7.79591e-12
-8.40751e-12
7.56316e-12
2.82594e-11
9.45725e-12
-3.74989e-12
-1.68014e-12
-2.13709e-14
9.88966e-14
2.24944e-11
1.98206e-10
3.77821e-10
-2.44148e-10
-1.45617e-09
-1.66236e-09
-7.2136e-10
-9.78836e-11
-1.57007e-12
-3.12578e-14
-6.31297e-12
-5.03272e-11
-7.08161e-11
-2.05802e-11
7.79747e-13
4.21602e-12
3.62762e-11
8.19978e-11
1.14268e-10
1.16161e-10
9.30704e-11
6.92638e-11
6.02478e-11
5.69647e-11
3.648e-11
8.60527e-12
-3.69957e-14
-1.74562e-12
-1.41615e-11
-1.19287e-11
-3.3315e-12
-4.21782e-11
5.0097e-13
9.91307e-11
8.28061e-11
1.64371e-11
-6.15305e-11
-5.86674e-11
-1.99095e-13
1.26633e-11
3.06813e-11
2.98039e-10
3.8494e-10
-2.15227e-10
-6.88942e-10
-5.30208e-10
-2.76648e-10
-1.38857e-10
-6.2485e-11
-2.81993e-11
-3.41536e-11
-3.35185e-11
-1.60656e-11
-2.24248e-12
-2.99762e-13
1.3708e-11
9.84521e-11
2.45769e-10
3.12372e-10
2.02247e-10
6.98916e-11
2.56378e-11
2.0314e-11
1.1394e-11
2.22241e-13
1.1376e-11
-2.72678e-11
-1.48694e-10
-1.36234e-10
-1.8399e-11
-8.13948e-12
2.07771e-11
1.73336e-10
2.57077e-10
1.55637e-10
1.169e-11
4.26419e-15
-6.64744e-14
-7.58481e-14
-2.70686e-13
-5.24709e-13
-4.3777e-13
3.69613e-13
7.08172e-13
1.27018e-12
2.29349e-12
2.76554e-12
3.38787e-12
4.9847e-12
3.36624e-12
-1.46577e-12
-4.28721e-12
-4.63378e-12
-5.18221e-12
-3.91639e-12
-1.49977e-13
4.18348e-12
1.25902e-11
7.49933e-12
-2.32697e-11
-3.00726e-11
-2.86052e-11
-2.22558e-11
-1.65685e-11
-1.21173e-11
-6.43141e-12
3.64321e-12
3.16141e-12
-7.25174e-12
-8.68673e-12
-1.39481e-13
8.10805e-12
5.71884e-12
1.47453e-13
4.22274e-15
3.06766e-14
-8.15629e-13
-4.87365e-13
-7.00621e-13
1.56007e-12
2.31903e-11
4.69617e-11
3.80297e-11
1.98935e-11
7.7959e-12
6.77314e-12
1.09736e-11
4.28791e-11
1.13965e-10
2.16137e-10
3.71674e-10
6.12508e-10
8.3537e-10
8.46686e-10
5.42339e-10
8.65893e-11
-3.44165e-11
-1.53472e-11
1.27921e-12
-6.10024e-11
2.47665e-11
8.74113e-11
-1.05426e-10
-2.35259e-10
-8.65498e-11
2.0998e-10
6.3945e-10
8.53042e-10
5.81711e-10
3.14967e-11
-6.46078e-11
4.13093e-12
2.08209e-10
3.23953e-11
-1.76258e-12
-3.76093e-13
-6.91216e-12
-3.43561e-12
-2.14516e-12
6.728e-12
5.35489e-11
1.18687e-10
1.00058e-10
2.984e-11
-7.5034e-12
-1.14344e-11
-2.14075e-11
1.34205e-11
1.24297e-10
3.06328e-10
6.18947e-10
1.0417e-09
1.31857e-09
1.25204e-09
7.98893e-10
1.03898e-10
-7.26222e-11
-9.70055e-12
-3.84843e-11
-1.4516e-11
3.77553e-10
6.44932e-10
2.8654e-10
-8.03613e-11
-4.17085e-11
1.90873e-10
5.63869e-10
8.59201e-10
7.03025e-10
1.71214e-10
-1.22652e-10
-7.60829e-12
8.72784e-12
7.97821e-11
-2.29705e-11
-5.6786e-13
-9.86862e-12
-5.06529e-12
-9.80352e-13
4.28151e-12
2.99575e-11
5.81832e-11
4.72763e-11
6.94687e-12
-1.50046e-12
-1.46654e-13
-6.90583e-12
-5.90724e-12
6.12439e-11
2.02151e-10
4.6704e-10
7.31994e-10
6.98202e-10
4.47296e-10
1.73306e-10
-4.76521e-12
-5.96928e-11
-4.78324e-10
-8.15178e-11
-2.42115e-12
3.20019e-10
4.5519e-10
1.37162e-10
-3.28216e-11
-1.29001e-11
6.78025e-12
4.96165e-11
1.36898e-10
1.22378e-10
3.76058e-12
-1.85015e-11
-5.18661e-11
-2.56689e-10
1.61007e-10
-4.11522e-12
-7.45064e-12
-2.5465e-13
-8.03527e-12
-5.88993e-13
2.67916e-12
2.38168e-11
3.30238e-11
1.22489e-11
2.02918e-13
-2.95484e-12
-1.66963e-11
-1.43129e-12
-7.5027e-12
3.67782e-11
2.04218e-10
5.62682e-10
8.40707e-10
6.00807e-10
2.53223e-10
6.61245e-11
-3.26916e-13
-4.71554e-10
-2.46618e-09
-1.00951e-09
9.44389e-14
3.86198e-10
5.60107e-10
1.38218e-10
-1.98384e-11
-2.71993e-12
1.30184e-13
1.5568e-13
1.40078e-11
1.74042e-11
-1.0395e-12
-5.22869e-12
-2.72146e-10
-9.23648e-10
-1.07315e-11
4.33699e-10
-4.94627e-11
-7.52543e-11
-9.71086e-12
-1.07699e-11
9.32262e-12
7.5772e-11
8.8024e-11
1.4536e-11
4.25097e-12
-1.9483e-11
-3.91839e-11
-1.05015e-11
-9.06473e-12
1.74594e-11
3.1982e-10
1.01256e-09
1.34619e-09
7.19867e-10
2.40187e-10
9.05252e-11
3.07137e-14
-5.26036e-10
-4.73301e-09
-3.2668e-09
-2.03304e-11
4.88654e-10
8.21296e-10
2.3378e-10
-1.41843e-11
-3.66475e-11
-7.19153e-12
1.84418e-11
4.4024e-11
2.14962e-11
-1.21123e-12
-1.64991e-11
-2.35961e-10
-1.07388e-09
-5.55175e-10
1.35686e-09
2.69793e-10
-2.92765e-10
-3.0251e-11
-3.61545e-11
1.72695e-11
2.3503e-10
3.00114e-10
8.42105e-11
6.82637e-12
-7.29768e-11
-1.45305e-10
-2.09324e-11
-1.41932e-11
-2.43111e-11
4.57217e-10
1.60595e-09
1.7469e-09
6.45286e-10
1.45429e-10
8.43706e-11
3.41727e-12
-4.05918e-10
-6.80349e-09
-6.67658e-09
-1.38662e-10
3.23213e-10
6.1436e-10
1.87146e-10
2.12254e-11
-6.37973e-11
-5.43239e-11
8.5512e-11
1.66049e-10
3.53488e-12
-4.48482e-11
-1.75059e-11
-2.83486e-10
-8.89932e-10
-1.08841e-09
1.33786e-09
1.53762e-09
3.15602e-10
-5.55469e-10
-2.4991e-12
9.87751e-13
5.39504e-10
8.29956e-10
3.82025e-10
6.78374e-12
-1.16344e-10
-5.57334e-10
-1.44234e-10
-3.9321e-11
-1.32329e-10
6.16759e-10
2.14533e-09
1.75592e-09
4.93829e-10
7.76973e-11
4.67799e-11
5.86055e-12
-2.88616e-10
-7.92285e-09
-9.95685e-09
-4.32406e-10
5.09951e-11
1.97921e-10
8.99286e-11
4.59337e-11
-2.66587e-11
-1.85277e-11
2.17571e-10
3.51388e-10
-1.81206e-10
-4.74926e-10
-3.39922e-11
-2.67609e-10
-8.14338e-10
-1.03776e-09
3.11417e-10
2.24943e-09
1.49188e-09
-1.44568e-09
-2.39227e-10
-2.83441e-12
8.32714e-10
1.8446e-09
1.09471e-09
2.25785e-11
-4.75046e-11
-1.02403e-09
-9.74338e-10
-5.9955e-12
-3.39274e-10
7.64415e-10
2.39337e-09
1.45781e-09
2.84237e-10
4.87418e-11
2.7472e-11
1.44397e-12
-2.68429e-10
-7.6449e-09
-1.17042e-08
-9.22743e-10
6.56239e-11
2.95779e-12
3.74852e-11
7.13026e-11
2.21911e-11
5.45118e-11
3.65158e-10
6.02136e-10
-1.30384e-10
-1.05322e-09
-4.47317e-10
-5.36165e-11
-6.76766e-10
-8.08144e-10
-2.63658e-10
1.27416e-09
1.1102e-09
-1.32526e-09
-1.02078e-09
5.89838e-12
1.46728e-09
3.3211e-09
1.67023e-09
-8.75116e-11
-3.01944e-11
-7.8201e-10
-2.09106e-09
-4.29336e-10
-2.02209e-10
7.90191e-10
2.12707e-09
9.39587e-10
2.01905e-10
1.26725e-10
4.79494e-11
-2.58748e-13
-4.4378e-10
-6.4084e-09
-1.12567e-08
-1.44918e-09
6.25034e-10
1.13436e-10
2.87996e-11
1.11825e-10
5.46169e-11
9.47181e-11
4.30577e-10
7.49632e-10
5.49287e-14
-1.19683e-09
-8.37084e-10
-2.3554e-11
-3.37108e-10
-5.59457e-10
-2.67515e-10
2.04422e-10
-1.51695e-10
-1.16135e-09
-4.50034e-10
1.45931e-11
2.61682e-09
4.55772e-09
1.67917e-09
-4.60555e-11
-9.5301e-11
-2.0763e-10
-1.93477e-09
-1.50164e-09
-6.02113e-12
4.0079e-10
1.32462e-09
8.15469e-10
4.69105e-10
4.27222e-10
9.66052e-11
-7.30812e-12
-8.747e-10
-5.27766e-09
-9.3991e-09
-1.84329e-09
1.55539e-09
2.13727e-10
8.72586e-11
1.47964e-10
5.79967e-11
1.19124e-10
4.46103e-10
7.80323e-10
7.8048e-11
-1.30412e-09
-9.99588e-10
-6.71246e-11
-1.70981e-10
-3.39261e-10
-1.44683e-10
-6.84597e-11
-6.31312e-10
-2.00547e-09
1.456e-09
1.13607e-10
2.62816e-09
3.88591e-09
1.15203e-09
2.85042e-11
-6.09858e-12
-7.11839e-11
-9.7739e-10
-2.01175e-09
-3.19308e-10
5.49862e-11
8.9223e-10
1.21169e-09
9.81206e-10
6.37192e-10
1.15702e-10
-1.73611e-11
-1.23026e-09
-4.95275e-09
-7.68915e-09
-1.83916e-09
1.4106e-09
5.29037e-11
1.4495e-10
1.23843e-10
5.85486e-11
1.26623e-10
3.50339e-10
5.97545e-10
2.11251e-10
-1.27428e-09
-1.32025e-09
-1.50869e-10
-1.08824e-10
-2.3246e-10
-8.93796e-11
-3.5253e-11
-3.36387e-10
-1.60113e-09
1.27153e-09
2.01499e-10
1.20894e-09
1.56306e-09
3.51922e-10
9.47978e-12
-4.67792e-12
-1.29641e-10
-7.81829e-10
-2.04191e-09
-9.81476e-10
1.8285e-12
5.8705e-10
1.3646e-09
1.09562e-09
5.78215e-10
1.37283e-10
-4.54818e-12
-1.04011e-09
-4.47525e-09
-5.33538e-09
-8.9237e-10
4.91275e-10
2.01481e-11
2.14646e-11
5.75451e-11
6.5598e-11
1.36629e-10
1.99123e-10
2.24206e-10
2.02846e-10
-7.20477e-10
-1.57994e-09
-4.9496e-10
-1.09513e-11
-1.26199e-10
-5.82787e-11
-5.40893e-11
-2.02874e-10
-3.03092e-10
1.62921e-10
2.20267e-11
1.06686e-10
9.04239e-11
1.14744e-11
4.99419e-14
3.84038e-12
-7.10062e-11
-9.51765e-10
-2.72216e-09
-1.97512e-09
-2.73803e-11
2.08652e-10
9.72465e-10
8.36349e-10
4.99291e-10
2.05238e-10
-4.07835e-12
-5.29456e-10
-3.18098e-09
-2.92517e-09
-3.32108e-10
4.71058e-10
2.93447e-10
2.85239e-12
1.32449e-10
2.23253e-10
2.27356e-10
1.03559e-10
7.16034e-12
1.33873e-11
-1.34018e-10
-1.13377e-09
-9.44159e-10
-8.89382e-11
-3.10635e-11
-4.09058e-11
-1.24503e-10
-1.74256e-10
-3.25395e-11
8.1782e-12
2.64485e-11
9.81934e-11
6.55327e-11
4.34884e-12
-8.6423e-15
2.70248e-14
-6.65862e-12
-8.89522e-10
-3.81114e-09
-3.32336e-09
-2.3286e-10
1.74684e-11
4.61385e-10
6.31952e-10
5.726e-10
3.31921e-10
-4.36715e-12
-1.67977e-10
-2.37906e-09
-2.74797e-09
-5.60029e-10
4.22698e-10
7.88909e-11
2.34488e-10
7.61674e-10
6.03011e-10
2.14632e-10
2.95122e-11
6.37197e-12
2.47575e-11
-2.40703e-12
-3.95523e-10
-9.37579e-10
-3.09834e-10
-3.96423e-12
-2.37946e-11
-1.16477e-10
-1.47907e-10
-1.93348e-11
3.25448e-11
1.1473e-10
2.14942e-10
1.13746e-10
4.68465e-12
-8.14555e-13
-2.168e-12
-6.8882e-12
-8.3272e-10
-4.6382e-09
-4.49491e-09
-5.58283e-10
7.331e-12
3.08765e-10
8.23839e-10
9.18109e-10
4.48546e-10
1.52889e-11
-2.20578e-11
-1.07814e-09
-2.02097e-09
-4.80066e-10
6.63552e-11
2.62724e-10
1.42899e-09
1.18484e-09
2.49668e-10
4.77523e-12
3.39057e-13
-1.27497e-12
-4.59252e-12
-3.63263e-12
-7.67846e-11
-6.44245e-10
-5.44096e-10
-7.50397e-11
-1.89527e-12
-7.30347e-11
-8.51858e-11
-2.28292e-11
6.40241e-11
1.32362e-10
1.95467e-10
1.29886e-10
1.48153e-11
-1.72261e-13
-7.58304e-12
-8.38499e-12
-8.04e-10
-4.90191e-09
-5.33951e-09
-8.09934e-10
3.92622e-12
6.00246e-10
1.41495e-09
1.17571e-09
3.34643e-10
6.33773e-12
-2.0215e-11
-2.23625e-10
-2.58075e-10
-5.46653e-12
2.91638e-10
1.95996e-09
1.75946e-09
1.69756e-10
1.54437e-10
3.89725e-10
1.29404e-10
-9.96849e-12
-1.98957e-12
-1.35113e-13
-1.12202e-11
-2.87296e-10
-6.79471e-10
-3.34664e-10
-3.53669e-11
-1.07053e-11
-3.2621e-12
-9.81846e-13
4.30337e-11
1.52865e-10
2.98624e-10
1.95474e-10
2.35609e-11
-1.30636e-13
-8.89989e-12
-7.06427e-12
-6.87204e-10
-3.77483e-09
-4.23089e-09
-5.74058e-10
2.43176e-11
9.52099e-10
1.45161e-09
7.05882e-10
8.28807e-11
2.06789e-13
-2.49914e-11
-8.34037e-12
-3.70698e-11
1.21301e-10
1.34982e-09
1.52418e-09
1.54203e-10
7.46229e-11
3.86791e-10
8.94826e-10
5.44547e-10
5.8168e-11
-4.36602e-11
-1.72454e-11
-7.58911e-12
-3.84385e-11
-2.88439e-10
-4.31739e-10
-2.20583e-10
-3.27063e-11
-6.36498e-11
-5.39672e-13
1.10881e-11
1.838e-10
3.26879e-10
1.17725e-10
6.27664e-13
-5.94201e-12
-2.10523e-11
-2.37686e-11
-5.95117e-10
-1.81069e-09
-1.35304e-09
-5.52035e-11
2.81287e-11
3.67127e-10
2.91184e-10
7.18267e-11
7.7485e-12
-2.77969e-13
-6.70265e-12
-4.07565e-11
-5.79983e-12
3.61689e-10
3.34169e-10
3.38025e-12
9.43414e-11
1.92347e-10
1.46444e-10
5.9244e-12
6.80829e-12
7.03769e-11
-8.44747e-10
-1.25953e-09
-4.2839e-10
-3.22815e-11
-2.45539e-11
-9.66818e-11
-1.79176e-10
-1.67753e-10
-1.61844e-10
-7.67611e-11
-1.2328e-12
1.26307e-11
4.15337e-11
1.12145e-11
5.14656e-14
4.2453e-14
-7.81304e-12
-1.97913e-10
-7.47361e-10
-8.07174e-10
-1.10239e-10
9.75968e-11
8.758e-12
3.6027e-12
1.06517e-11
9.29752e-12
5.14657e-12
-8.78614e-13
-5.86919e-12
-1.31211e-11
5.76576e-12
3.03348e-11
1.16836e-12
9.18986e-11
1.34435e-10
4.28465e-12
2.73935e-10
7.74596e-10
3.80911e-10
-1.03992e-12
-1.08394e-09
-3.76229e-09
-2.03644e-09
-1.7835e-10
-1.23172e-12
1.12651e-10
1.81743e-10
-2.08298e-11
-2.80105e-11
-3.72284e-11
-2.55057e-11
1.08471e-11
3.24898e-11
9.47586e-12
1.53863e-12
8.65693e-12
-7.0615e-11
-3.91359e-10
-8.13413e-10
-6.49247e-10
-9.32862e-11
1.16032e-10
7.52076e-11
1.18937e-11
4.53415e-12
2.96625e-11
2.42649e-11
-8.21512e-12
-5.2817e-12
-9.90793e-13
-5.52884e-12
-3.26937e-13
2.35476e-11
3.54937e-11
2.94143e-12
6.175e-11
3.59202e-10
6.81686e-10
4.29037e-10
-1.66562e-11
-2.18047e-10
-2.07975e-09
-1.70466e-09
-1.49602e-10
6.12632e-12
1.95503e-10
2.2547e-10
4.80318e-11
-1.45901e-12
-2.09337e-11
-2.55248e-12
-2.9313e-12
8.07564e-11
2.00411e-10
9.47507e-11
3.8888e-13
-9.3928e-11
-4.84972e-10
-4.71279e-10
-1.40337e-10
-1.13508e-11
2.65092e-11
1.27877e-10
1.4789e-10
4.38858e-11
3.40705e-12
-1.05408e-13
-1.05495e-12
-9.80975e-12
-3.1218e-11
-2.72492e-11
6.10915e-12
3.40019e-12
3.81897e-11
2.86369e-10
5.892e-10
6.42683e-10
4.43224e-10
1.19165e-10
-7.90757e-12
-6.62034e-11
-5.38953e-10
-5.61575e-10
-5.27245e-11
4.41841e-12
2.87e-11
4.36763e-11
4.4957e-12
4.8181e-12
-6.68663e-12
-3.77122e-11
-2.44679e-12
3.4459e-13
2.59985e-11
1.6821e-11
4.74995e-12
-1.60833e-10
-8.52775e-10
-7.00633e-10
-6.73155e-11
-1.98795e-12
7.17832e-14
1.87126e-11
-1.47005e-11
-4.39149e-11
-7.75236e-12
1.12894e-12
1.41131e-12
1.80812e-12
3.73239e-13
2.54168e-12
4.50969e-11
1.58146e-10
2.22341e-10
1.9455e-10
1.65668e-10
1.42004e-10
7.48476e-11
7.16897e-12
-1.93498e-12
-4.44454e-11
-5.28616e-11
-3.6901e-12
-1.21535e-11
3.20975e-11
1.47054e-10
1.33452e-10
2.30389e-11
1.17009e-11
3.29998e-13
4.08211e-13
3.96563e-12
1.70923e-11
3.93941e-11
1.75326e-11
-1.39333e-10
-6.07669e-10
-1.40274e-09
-1.55025e-09
-6.67088e-10
-8.9354e-11
-2.80523e-12
-1.13878e-14
-4.3933e-14
-3.49218e-13
3.14497e-12
2.57242e-11
6.09704e-11
7.76433e-11
6.23079e-11
2.77489e-11
3.66931e-12
8.73522e-13
4.5953e-12
4.66818e-13
1.74513e-11
5.22796e-11
1.9711e-11
-4.21828e-14
-4.62301e-11
-1.38537e-10
-4.26645e-11
-1.9857e-11
-7.84116e-11
1.02188e-10
3.17697e-10
2.67762e-10
9.43406e-11
1.70894e-10
1.54445e-11
-4.57298e-12
1.49117e-13
3.00302e-11
9.4278e-11
-2.35865e-11
-2.28762e-10
-2.45789e-10
-1.6864e-10
-1.15605e-10
-6.38931e-11
-1.79442e-11
-8.43585e-13
1.91566e-12
2.43058e-13
-4.76043e-12
-4.05016e-12
1.11169e-12
1.62249e-12
4.48864e-11
1.16017e-10
8.15905e-11
7.46885e-12
-3.20338e-12
-5.06275e-14
3.94401e-14
1.72117e-12
1.1882e-12
4.52015e-12
-8.81203e-12
-1.31879e-10
-1.89539e-10
-5.99089e-11
-5.89553e-12
-2.12757e-11
2.15007e-10
5.61448e-10
6.53147e-10
4.49038e-10
-7.06532e-14
-2.19708e-13
-1.11788e-13
2.20311e-13
1.73397e-12
1.79556e-12
8.45367e-13
-3.15737e-13
-1.02248e-13
1.44208e-12
4.25846e-12
6.44917e-12
3.48305e-12
-2.04377e-12
1.47261e-12
2.34294e-12
1.95096e-12
2.41053e-12
5.1603e-12
2.59747e-13
-1.50246e-12
-2.56707e-13
-1.73419e-13
-3.69968e-12
-5.00261e-12
-3.13226e-12
-2.67862e-12
-4.21836e-12
-4.5567e-12
4.67555e-12
2.02408e-11
1.61672e-11
2.93172e-12
-4.65267e-13
-2.33735e-13
1.17082e-12
8.65173e-13
2.74508e-13
1.98909e-13
1.40484e-12
-8.58952e-12
-4.595e-12
-2.69521e-12
1.68338e-11
4.22666e-11
3.39027e-11
1.22157e-11
-1.5572e-11
-2.0511e-11
2.03043e-12
4.57106e-11
1.00644e-10
1.49065e-10
2.08943e-10
4.13971e-10
6.52286e-10
8.8268e-10
1.1815e-09
1.42361e-09
7.33019e-10
-1.28482e-10
-3.58595e-11
-5.5351e-12
-3.55238e-11
-1.27105e-10
-1.64046e-10
-1.33215e-10
-7.91561e-11
7.25524e-11
4.50264e-10
8.75227e-10
8.20746e-10
3.4761e-10
3.30005e-11
-1.58995e-12
7.46266e-12
7.16945e-11
3.35211e-11
4.62258e-13
-1.44221e-12
-1.47943e-11
-1.06315e-11
-8.26361e-12
1.60071e-11
4.96074e-11
3.96028e-11
1.16449e-11
-2.86746e-11
-5.7239e-11
-4.23206e-11
1.99178e-12
7.2834e-11
1.83599e-10
3.58736e-10
6.35645e-10
8.50737e-10
9.5098e-10
1.13972e-09
1.48501e-09
1.059e-09
-1.12849e-10
-5.0231e-11
-1.47274e-11
-5.37427e-12
-1.22615e-10
-2.42e-10
-1.95143e-10
-8.12225e-11
1.053e-10
4.98918e-10
9.81274e-10
9.94464e-10
4.71095e-10
4.15333e-11
-2.78408e-11
-4.786e-13
3.51524e-11
1.28293e-10
2.26876e-11
-3.61379e-13
-6.54689e-13
-3.55358e-12
-2.25102e-12
8.25764e-12
3.70062e-11
3.97833e-11
2.3051e-11
-3.70973e-13
-2.63375e-11
-2.58356e-11
-9.9559e-12
2.67066e-11
1.0975e-10
2.51342e-10
3.90086e-10
3.65111e-10
2.44455e-10
2.16313e-10
3.3022e-10
2.75328e-10
-4.64714e-11
-8.90585e-11
-6.22252e-10
-9.2513e-11
-1.4749e-11
-9.58222e-11
-6.27301e-11
-9.58497e-12
1.84546e-11
1.06368e-10
3.0368e-10
3.3699e-10
1.10853e-10
-1.19182e-11
-3.3453e-12
-9.55348e-11
-3.42686e-11
4.04845e-10
2.80015e-10
-3.6027e-11
-6.77663e-11
-8.57024e-14
-1.74911e-14
2.81697e-12
2.71681e-11
4.135e-11
3.43222e-11
2.03894e-11
-8.34717e-12
-1.8633e-11
-1.12998e-11
7.84147e-12
7.4925e-11
2.35422e-10
3.48436e-10
2.17926e-10
5.03698e-11
1.7058e-11
9.0178e-11
1.66675e-10
-3.55996e-11
-3.38764e-10
-2.34007e-09
-6.7235e-10
-1.76884e-12
-4.4294e-11
-3.78563e-11
-1.70563e-12
7.79382e-14
6.97506e-12
9.43644e-11
1.66286e-10
5.41706e-11
-4.19808e-12
-5.2628e-11
-4.01919e-10
-4.31031e-10
7.07469e-10
1.23032e-09
-1.5605e-10
-7.59333e-10
-2.44595e-11
-2.17918e-13
2.12906e-12
3.04653e-11
5.21785e-11
4.98795e-11
4.70581e-11
2.04746e-11
-3.08738e-11
-3.64335e-11
-1.09033e-12
8.56531e-11
2.84968e-10
3.72273e-10
1.44118e-10
1.06373e-12
1.3165e-11
2.99553e-11
2.39733e-10
-7.14988e-11
-1.31939e-10
-3.60623e-09
-2.12245e-09
-2.76426e-11
-9.99821e-12
-4.78253e-11
-8.25385e-12
1.02348e-12
8.13187e-12
9.17771e-11
2.00638e-10
8.98038e-11
-1.82625e-11
-1.18505e-11
-3.38488e-10
-7.15678e-10
5.09388e-10
2.54221e-09
4.8561e-10
-2.75868e-09
-4.41858e-10
-9.4026e-13
8.06273e-13
4.81425e-11
7.71825e-11
6.7097e-11
6.74228e-11
8.13213e-11
-4.28631e-12
-8.37661e-11
-2.02706e-11
1.14947e-10
3.02276e-10
2.66071e-10
2.33034e-11
5.15065e-11
6.90567e-11
1.41633e-11
2.46038e-10
-5.09067e-11
-1.30781e-10
-4.76765e-09
-4.3078e-09
-1.22162e-10
2.65294e-11
1.89083e-11
-2.89779e-12
1.22528e-11
5.89097e-11
2.31917e-10
3.83027e-10
1.45304e-10
-1.15855e-10
-1.7296e-11
-1.46515e-10
-6.72657e-10
-1.74329e-10
2.68546e-09
3.00064e-09
-3.58269e-09
-2.69627e-09
-1.66767e-11
-1.22283e-11
7.50477e-11
1.17689e-10
9.30459e-11
6.19148e-11
7.53672e-11
7.2798e-11
-3.83082e-11
-2.3875e-11
2.31882e-10
4.10381e-10
1.60651e-10
1.6288e-11
2.0017e-10
1.08315e-10
3.28259e-11
2.02215e-10
-1.37496e-11
-5.49017e-10
-6.71812e-09
-5.8512e-09
-2.53142e-10
2.11256e-11
7.43144e-11
3.0433e-11
4.40048e-11
1.80285e-10
5.09655e-10
6.99492e-10
1.27709e-10
-6.17955e-10
-3.31001e-10
-8.60396e-12
-3.97794e-10
-5.2435e-10
1.33636e-09
4.77797e-09
-1.03286e-09
-6.86898e-09
-3.6456e-10
-2.31266e-11
1.05019e-10
1.63837e-10
9.42333e-11
2.97044e-11
2.5721e-11
5.04487e-11
1.28813e-10
2.14734e-10
5.85502e-10
7.0346e-10
1.52139e-10
3.83971e-11
2.70377e-10
1.15657e-10
6.75148e-11
1.14823e-10
-2.25593e-12
-1.55207e-09
-8.93284e-09
-6.51272e-09
-3.64315e-10
4.36292e-12
6.31879e-11
5.57575e-11
8.83121e-11
2.73533e-10
7.18974e-10
9.85512e-10
1.06953e-10
-1.38793e-09
-1.25059e-09
-1.38151e-10