/*--------------------------------*- C++ -*----------------------------------*\
| =========                 |                                                 |
| \\      /  F ield         | OpenFOAM: The Open Source CFD Toolbox           |
|  \\    /   O peration     | Version:  5.0                                   |
|   \\  /    A nd           | Web:      www.OpenFOAM.org                      |
|    \\/     M anipulation  |                                                 |
\*---------------------------------------------------------------------------*/
FoamFile
{
    version     2.0;
    format      ascii;
    class       volScalarField;
    location    "50.4676134421789371";
    object      UUW;
}
// * * * * * * * * * * * * * * * * * * * * * * * * * * * * * * * * * * * * * //

dimensions      [0 3 -3 0 0 0 0];

internalField   nonuniform List<scalar> 
60000
(
-2.09837e-12
-1.6265e-11
-4.66144e-11
-1.10482e-11
1.13953e-11
1.72083e-13
4.01749e-12
1.08741e-11
3.27202e-12
-3.88243e-11
-4.39632e-11
-1.3372e-11
-2.37929e-12
-1.54272e-12
1.34906e-12
6.11334e-12
5.67987e-12
1.73265e-11
1.04413e-10
3.81497e-10
6.45176e-10
2.1407e-10
-7.79831e-10
-1.47354e-09
-1.85678e-09
-2.00003e-09
-1.90959e-09
-1.43942e-09
-5.52337e-10
-7.66871e-11
6.76638e-11
3.24561e-10
5.87918e-10
4.89766e-10
9.35299e-11
7.31762e-12
1.13135e-13
-1.7654e-11
-6.53342e-11
-3.81852e-11
-4.24302e-10
-4.4755e-12
-3.27466e-11
5.43629e-11
1.17439e-10
6.43818e-12
3.61929e-11
4.71548e-11
-3.45095e-10
-1.46059e-09
-1.77336e-09
-7.94459e-10
-1.21345e-10
6.7625e-12
1.08722e-10
4.35851e-10
8.77927e-10
1.36096e-09
2.0076e-09
2.48361e-09
1.42221e-09
-4.07217e-09
-1.29167e-08
-1.84855e-08
-1.93369e-08
-1.51725e-08
-9.9948e-09
-7.75147e-09
-4.5959e-09
-8.56503e-10
6.33637e-10
2.56683e-09
5.82847e-09
7.12141e-09
3.84745e-09
2.79697e-10
4.47611e-12
-8.8372e-11
-1.09354e-09
-1.26827e-09
-1.5273e-09
-3.13076e-10
-6.97154e-12
2.28785e-12
4.52465e-11
6.22165e-11
1.32483e-13
4.04892e-11
-2.48739e-10
-1.88506e-09
-3.12742e-09
-1.87707e-09
-3.74367e-10
-2.23305e-12
9.95096e-11
6.0323e-10
1.3816e-09
1.44642e-09
1.09155e-09
7.82946e-10
1.64843e-10
-3.46306e-09
-1.30443e-08
-1.86377e-08
-1.63073e-08
-8.32632e-09
-6.22358e-10
1.49049e-09
4.00005e-10
6.97354e-11
1.92104e-10
5.47111e-10
1.87038e-09
3.59939e-09
3.1979e-09
8.07655e-10
1.20685e-12
-1.17501e-12
-6.67165e-10
-2.14345e-09
-1.02034e-09
-1.98635e-10
-1.14791e-16
1.35598e-11
9.31393e-11
2.95694e-10
3.11941e-10
3.66159e-11
-5.56926e-12
-6.21394e-10
-1.97906e-09
-1.17873e-09
-8.163e-11
-9.97061e-13
1.40538e-11
1.60915e-10
8.21891e-10
4.74988e-10
2.47126e-12
1.12687e-10
4.14623e-12
-4.34611e-10
-6.24618e-09
-1.04322e-08
-7.41823e-09
-2.14311e-09
1.30134e-09
1.58388e-09
4.74335e-10
2.7824e-12
1.0544e-10
2.00329e-10
3.87603e-11
5.91767e-11
2.14154e-10
3.34037e-13
3.25803e-10
4.79435e-11
-2.65897e-12
-6.97045e-10
-6.60588e-10
-2.29461e-10
-2.05217e-11
1.63196e-11
2.29483e-10
6.14215e-10
1.17963e-09
7.66125e-10
6.45662e-11
-9.92846e-12
-1.08168e-09
-1.42827e-09
-8.09219e-11
-5.50419e-11
1.97245e-10
2.87566e-11
9.26667e-10
4.06691e-10
2.57335e-10
2.21911e-09
6.37198e-10
-9.57049e-11
-3.98336e-09
-1.04578e-08
-6.4622e-09
-1.27459e-09
6.88319e-10
8.06139e-10
2.65627e-10
1.5669e-11
4.33645e-10
8.38948e-10
8.8973e-10
6.50407e-10
3.65541e-10
4.14008e-10
1.27478e-09
9.71292e-10
-1.35666e-10
-7.95853e-12
-1.61591e-10
-5.66377e-10
-3.74974e-11
-3.68383e-11
9.44682e-11
4.24076e-10
1.20414e-09
1.78657e-09
8.70702e-10
-1.27497e-10
-3.13659e-11
-1.29773e-09
-5.74857e-10
-1.19435e-11
7.04245e-11
2.2026e-10
2.55307e-09
1.3313e-09
8.9329e-11
4.02682e-09
3.75295e-09
-1.2608e-09
-2.91097e-09
-1.42745e-08
-7.01724e-09
-8.73403e-10
3.14464e-10
5.45864e-10
4.93577e-10
2.0004e-10
2.98352e-13
1.887e-10
4.70944e-10
8.65826e-10
1.42042e-09
1.36782e-09
1.2219e-09
1.41228e-09
5.52105e-10
-3.9886e-11
-3.92371e-12
-1.9804e-10
-2.1518e-10
-8.54588e-12
-3.36019e-12
6.29854e-11
4.19227e-10
1.36121e-09
1.9596e-09
4.5687e-10
-9.12496e-10
-1.04098e-14
-4.30986e-10
-6.35015e-11
3.39227e-11
1.88268e-09
6.72224e-09
2.92448e-09
1.01884e-11
2.23121e-09
7.45316e-09
-3.40945e-09
-4.77968e-10
-1.10943e-08
-3.91524e-09
-3.85095e-10
1.51938e-10
3.9977e-10
4.57284e-10
4.55301e-10
3.0015e-10
5.91188e-11
5.2893e-12
1.68769e-10
1.17004e-09
2.72689e-09
2.13677e-09
1.16205e-09
8.23151e-10
2.53901e-10
1.09875e-10
-8.17782e-12
-1.11218e-11
-1.45566e-11
-1.23277e-11
-4.13199e-13
4.31609e-12
2.0414e-10
1.22077e-09
1.73246e-09
-2.38096e-09
-2.83251e-09
-6.55409e-11
-1.41015e-10
7.40701e-10
7.783e-09
1.17104e-08
3.78944e-09
6.90276e-11
-9.96729e-11
4.12374e-09
-4.97503e-09
-1.23899e-09
-2.33868e-09
-1.00358e-09
-2.3668e-10
2.96013e-11
3.02186e-10
4.04824e-10
4.46284e-10
3.94086e-10
9.17162e-12
-1.86215e-10
-1.21775e-12
1.07752e-10
1.92849e-09
3.23369e-09
1.71338e-09
7.16006e-10
4.67161e-10
4.15051e-10
6.13784e-11
-2.08555e-10
-8.0018e-11
-4.49754e-12
-2.96961e-11
2.66614e-11
6.31187e-11
2.67456e-11
1.10872e-09
-2.00295e-09
-8.40151e-09
-1.80254e-09
-5.1881e-11
3.25582e-09
1.3544e-08
1.15061e-08
2.71316e-09
3.59463e-11
-1.5033e-10
-1.2948e-09
-5.97967e-09
-7.83213e-09
-3.02956e-10
-2.60382e-11
-2.14125e-10
-2.59813e-10
1.10781e-10
3.83224e-10
4.43078e-10
2.43577e-10
-6.05154e-10
-1.41011e-09
-6.71922e-10
-1.3303e-14
3.8437e-10
2.36245e-09
2.47692e-09
1.20331e-09
5.58161e-10
6.70507e-10
6.46603e-10
-4.31076e-10
-3.03469e-10
-1.91319e-13
-3.3806e-11
1.06588e-10
2.79059e-10
2.41558e-10
4.80623e-11
-9.22172e-10
-1.11707e-08
-3.97994e-09
3.84835e-12
5.71298e-09
1.26742e-08
6.95238e-09
1.29553e-09
2.08231e-11
-1.34637e-13
-1.02365e-09
-4.64413e-09
-1.00493e-08
-3.95625e-09
-2.64217e-10
-2.39325e-10
-7.05285e-10
-1.30488e-10
3.51681e-10
4.31805e-10
-5.77778e-11
-1.64891e-09
-2.98747e-09
-2.00099e-09
-2.64332e-10
6.27926e-12
8.06402e-10
1.96333e-09
1.71904e-09
8.97354e-10
5.86359e-10
1.05579e-09
-2.26846e-10
-2.49339e-10
-6.16334e-12
-2.84886e-11
3.19535e-11
1.95631e-10
4.13404e-10
9.64069e-11
-1.59274e-10
-8.16187e-09
-6.48418e-09
4.00405e-10
3.45493e-09
8.38895e-09
4.41352e-09
7.35623e-10
9.27261e-12
-1.28369e-12
-7.16008e-11
-1.15345e-09
-3.93045e-09
-3.73412e-09
-8.10536e-10
-1.38742e-10
-7.81303e-10
-2.20777e-10
2.90016e-10
3.93598e-10
-3.8054e-10
-3.12149e-09
-5.22401e-09
-3.33625e-09
-5.48393e-10
-5.91381e-13
2.78808e-10
9.64279e-10
1.13305e-09
7.5437e-10
1.49076e-10
5.14491e-10
-1.42245e-11
-9.22734e-11
-1.04058e-13
-7.73823e-12
7.14981e-12
6.55814e-13
1.20523e-10
1.94575e-10
-9.04406e-13
-3.23715e-09
-7.94279e-09
1.01792e-09
3.31499e-10
4.87934e-09
3.11417e-09
1.95608e-10
-2.08524e-11
1.1849e-13
5.034e-12
1.74717e-10
5.4429e-10
-7.99867e-10
-8.05219e-10
-6.31007e-12
-2.87348e-10
-1.01003e-10
2.10835e-10
3.65856e-10
-3.33411e-10
-3.8865e-09
-8.09993e-09
-5.8359e-09
-1.02251e-09
-3.69184e-12
2.07971e-10
6.26646e-10
5.41065e-10
2.69498e-10
1.28512e-11
1.27362e-11
7.83984e-12
-1.13366e-11
-4.91008e-11
-1.97976e-10
-7.35078e-11
1.33479e-10
5.47413e-13
1.30014e-10
4.59833e-12
-9.74617e-10
-7.01928e-09
-6.28187e-10
2.10402e-10
1.73278e-09
1.17043e-09
-5.85882e-10
-1.75288e-10
2.80562e-11
1.62379e-11
2.76445e-10
7.92959e-10
-6.09048e-11
-5.75805e-10
-2.36103e-10
-6.8714e-12
-5.58635e-12
1.59283e-10
3.56687e-10
6.68486e-11
-2.57789e-09
-8.98895e-09
-1.01041e-08
-2.94407e-09
-1.58818e-11
6.65195e-11
5.27143e-10
4.88282e-10
2.07562e-10
4.95926e-11
2.23854e-11
2.13211e-11
-1.07984e-13
-8.7704e-11
-3.68631e-10
-4.89583e-10
-7.22122e-11
2.13434e-11
1.11527e-10
9.98538e-11
-1.06365e-10
-4.74752e-09
-3.42961e-09
1.13912e-09
7.39572e-11
-8.76476e-11
-1.55354e-09
-8.00913e-10
2.97328e-10
3.36968e-12
5.288e-10
4.61191e-10
-2.74715e-11
-9.28727e-10
-1.22879e-09
-1.75521e-10
1.19127e-12
1.76098e-10
3.35574e-10
2.87031e-10
-4.43535e-10
-5.07959e-09
-1.26206e-08
-7.94598e-09
-6.31374e-10
-3.39531e-11
2.88459e-10
4.58983e-10
3.20793e-10
8.72375e-11
1.53206e-12
2.30772e-13
2.20576e-11
1.45764e-11
-2.00225e-10
-4.5919e-10
-3.04301e-10
-1.05935e-11
2.2171e-11
8.74515e-11
1.07288e-11
-1.80651e-09
-4.14096e-09
3.48684e-10
2.01339e-11
-5.10279e-10
-2.45729e-09
-1.29896e-09
4.49134e-10
4.75948e-11
1.19395e-09
2.41801e-09
6.17638e-10
-1.50654e-09
-8.87163e-10
-2.21117e-11
-1.72841e-11
1.23797e-10
1.60003e-10
1.28018e-10
2.06428e-10
-9.9105e-10
-9.00627e-09
-1.39096e-08
-3.80531e-09
-7.30681e-13
5.2368e-11
3.17726e-10
2.32255e-10
1.00636e-10
7.01682e-11
8.41137e-11
1.19961e-10
1.27736e-10
5.43444e-11
-3.34415e-11
-3.7057e-11
-1.07387e-11
9.17404e-13
1.27074e-11
1.81833e-10
-3.74556e-10
-2.85445e-09
-1.43998e-09
-3.83175e-11
-5.17888e-10
-1.15693e-09
-5.01749e-10
1.29466e-10
2.44581e-10
1.86333e-11
1.33403e-09
9.08657e-10
-7.01298e-10
-3.00356e-10
-1.37665e-11
-1.84759e-12
1.34267e-11
6.75232e-11
3.90655e-11
5.22827e-11
2.76807e-10
-3.74172e-09
-1.41375e-08
-1.10162e-08
-1.24362e-09
-1.73574e-11
1.2142e-10
1.60005e-10
8.00201e-11
9.64497e-11
3.75798e-11
-1.06311e-10
9.5334e-11
3.29909e-10
8.89125e-11
2.05082e-13
-1.67808e-12
-5.80048e-14
8.22185e-11
5.61711e-10
1.31395e-10
-1.80865e-09
-9.46587e-10
-5.3544e-13
5.12336e-12
-1.16302e-10
-1.96297e-10
9.55909e-12
3.47772e-11
1.42231e-10
1.38311e-10
6.19919e-11
-1.55311e-10
-1.64452e-10
-8.99406e-11
-4.10443e-10
6.72411e-10
1.43537e-09
8.53582e-10
8.27626e-11
1.83566e-10
-3.62533e-10
-7.19537e-09
-1.37704e-08
-6.81616e-09
-6.85113e-10
7.57037e-13
2.60769e-11
3.93732e-11
1.19332e-10
4.03837e-13
-3.40712e-10
-9.8284e-12
5.85563e-10
9.3346e-11
4.49748e-11
2.44994e-11
-1.15819e-12
4.37538e-11
6.00439e-10
3.28907e-10
-8.55652e-10
-1.72302e-10
1.57984e-11
3.20405e-10
-3.42602e-10
-4.77342e-10
-3.17667e-11
1.20898e-12
1.42577e-10
1.09726e-09
1.02743e-09
-7.4648e-10
-1.86228e-10
-5.7613e-10
-6.60476e-10
5.52865e-10
4.52049e-10
2.01822e-10
3.12641e-10
3.9556e-10
9.87501e-13
-6.18409e-10
-6.64694e-09
-1.0482e-08
-4.79713e-09
-4.43812e-10
2.80039e-11
-9.93377e-13
-1.14136e-10
-1.03645e-09
-1.64297e-09
-3.41387e-10
1.4603e-10
1.16696e-10
8.26507e-10
5.1115e-10
1.36498e-11
-4.39319e-11
-4.41974e-11
5.4059e-10
5.09018e-10
8.22048e-11
1.24514e-10
-3.27973e-11
-1.07492e-09
-7.78448e-10
-5.98379e-11
-8.11498e-13
5.5649e-12
2.54262e-10
2.01975e-10
3.10556e-12
1.70659e-10
3.83217e-10
-2.9161e-11
-9.26832e-12
-3.49074e-10
2.96639e-10
2.90822e-12
2.61712e-09
3.57518e-09
1.91933e-10
-2.27597e-10
-3.73718e-09
-5.14414e-09
-1.99225e-09
-1.6519e-10
-3.40065e-10
-7.31717e-12
-1.07513e-09
-1.59433e-09
-2.05532e-10
2.34159e-11
4.30866e-11
1.14778e-10
7.23808e-11
6.32341e-14
-1.2016e-10
-1.04327e-09
-7.69972e-10
1.94884e-10
2.27278e-11
8.98537e-11
-6.06903e-11
-4.43342e-10
-3.49958e-10
-6.37375e-11
-2.91279e-12
-1.32682e-11
1.54192e-11
7.6882e-11
1.46476e-10
-4.02465e-11
-4.83238e-11
-1.91273e-10
-9.74322e-10
-3.35205e-10
1.39412e-09
1.01516e-09
3.94619e-10
4.99879e-09
3.12959e-09
-1.05147e-10
-1.18061e-10
-1.36492e-09
-1.57169e-09
-8.84548e-10
-1.82572e-11
-8.27773e-13
-1.35306e-11
-2.51302e-11
-4.10291e-12
5.33131e-12
4.403e-11
2.21118e-10
3.72848e-10
2.06823e-10
-2.99474e-11
-3.54759e-10
-4.49259e-10
-1.60956e-10
-2.94664e-12
-1.55343e-11
1.21704e-11
9.35177e-11
1.26182e-10
6.43505e-11
2.19309e-12
-2.12008e-13
-1.83707e-11
-1.38077e-11
-1.11413e-11
-4.64702e-11
-2.08713e-11
-7.87494e-12
-8.51785e-11
-5.78487e-11
4.59259e-10
1.31955e-09
7.58827e-10
9.25283e-11
1.14437e-09
2.51389e-10
-3.81851e-11
-7.51193e-11
-1.72216e-10
-7.24921e-11
-2.01224e-10
-2.5181e-10
-8.95828e-11
-8.58727e-13
-9.64353e-12
-2.25683e-12
9.40093e-15
6.85122e-11
2.80722e-10
1.9719e-10
4.2346e-12
-1.42785e-11
-1.40833e-10
-3.50722e-11
-7.94758e-11
-1.69738e-10
4.58275e-11
1.87154e-11
2.78332e-11
5.814e-11
4.07602e-12
2.98774e-11
1.35681e-10
2.28564e-10
1.67815e-10
3.36822e-11
3.6551e-14
-4.86208e-11
-2.72135e-10
-3.9389e-10
-7.25875e-11
3.83353e-10
3.20773e-10
8.35601e-12
1.32715e-10
1.60849e-10
-2.52852e-12
-8.96373e-12
-6.11209e-13
-3.64706e-11
-1.83929e-12
1.27495e-11
5.47178e-11
1.58589e-11
-2.04093e-11
-4.32445e-11
-1.14543e-10
-6.49146e-11
2.47771e-10
1.65747e-10
-3.14684e-12
-8.67671e-11
-2.98805e-10
-2.3383e-11
-2.12952e-10
-7.77569e-11
8.10247e-10
7.41004e-10
2.28994e-10
4.83493e-11
2.66838e-11
3.21031e-11
1.65135e-11
7.88749e-12
1.53576e-10
2.91369e-10
3.64037e-12
-5.16491e-10
-6.51294e-10
-3.99656e-10
-1.41075e-10
5.93662e-12
4.85538e-11
2.25895e-11
7.47116e-12
4.52997e-12
-2.98861e-12
-2.89503e-11
-4.76605e-11
-1.39305e-11
8.35379e-13
3.09172e-12
1.1002e-12
8.52572e-19
-7.75295e-12
-2.08391e-10
-9.17862e-10
-1.05012e-09
5.69755e-10
1.56077e-09
4.5594e-10
-1.37392e-10
-1.53723e-11
-2.14853e-13
-1.56207e-11
-1.37673e-11
1.37193e-10
1.51039e-10
2.50713e-11
1.12433e-11
9.90802e-11
2.29759e-10
3.36829e-10
3.34265e-10
2.05206e-10
5.39555e-11
-6.40269e-11
-1.73756e-10
-2.09277e-10
-1.03706e-10
-8.01349e-12
-8.23725e-13
4.29906e-11
4.95955e-11
3.0732e-12
7.36022e-11
-1.38334e-11
-1.50011e-10
-1.22024e-10
-3.54555e-11
-1.94616e-11
2.54974e-10
3.32773e-10
8.7365e-11
2.10277e-11
-3.68792e-10
-2.19896e-09
-2.71188e-09
-7.4087e-10
4.94042e-10
5.35213e-10
3.16151e-10
3.73653e-11
-2.41632e-10
-3.10562e-10
-1.76427e-10
-5.4886e-11
-6.57403e-12
-4.5205e-13
8.55482e-12
9.51543e-11
3.19177e-10
5.98196e-10
6.62549e-10
4.04449e-10
1.28013e-10
-2.92718e-12
-2.76739e-11
-7.2718e-13
-7.57091e-11
-3.02323e-10
-2.61324e-10
6.84615e-11
6.37529e-11
3.52079e-11
3.01302e-10
1.97101e-10
-3.0776e-10
-5.3265e-10
-3.32677e-10
-3.40793e-12
-2.13278e-12
-1.82872e-13
3.86444e-12
1.78667e-11
2.91034e-11
2.36241e-11
3.48863e-12
-1.63872e-11
-5.40807e-11
-9.90198e-11
-1.56222e-10
-2.44836e-10
-3.4327e-10
-4.08338e-10
-4.68657e-10
-4.93776e-10
-2.25959e-10
3.95051e-10
7.03118e-10
5.92319e-10
5.35161e-10
-9.98296e-11
-1.16851e-09
-1.6609e-09
-1.79797e-09
-1.53e-09
-1.02332e-09
-6.53616e-10
-3.39493e-10
3.80723e-10
1.34881e-09
1.58795e-09
8.10404e-10
6.28872e-11
1.30862e-10
2.07846e-10
1.87722e-11
4.65097e-14
1.33794e-13
-2.47135e-11
-8.65753e-12
-5.10097e-12
1.24615e-12
2.83848e-11
1.77912e-10
4.15035e-10
1.911e-10
-1.10563e-10
-4.20722e-10
-9.36427e-10
-1.43808e-09
-1.78785e-09
-1.9992e-09
-2.17884e-09
-3.11372e-09
-5.0506e-09
-4.35568e-09
3.24977e-09
1.05396e-08
6.40606e-09
2.5078e-09
-1.94541e-09
-1.25223e-08
-2.03913e-08
-2.2074e-08
-1.75509e-08
-1.08933e-08
-5.83051e-09
-2.38926e-09
2.22369e-09
8.92657e-09
1.31862e-08
1.01659e-08
2.86436e-09
1.57518e-11
1.54706e-09
3.86439e-10
-1.53582e-11
-9.95879e-12
-8.79078e-11
-3.06989e-11
-1.26563e-11
-2.93071e-11
-1.22759e-10
-1.38082e-10
2.35074e-10
3.7941e-10
7.35319e-11
-1.60388e-10
-6.48374e-10
-1.22722e-09
-1.28879e-09
-8.39979e-10
-2.922e-11
1.63357e-10
-1.61714e-09
-3.37468e-09
-9.08752e-10
4.46156e-09
2.58823e-09
2.38578e-10
-3.16254e-10
-8.45276e-09
-1.79216e-08
-1.67564e-08
-9.01571e-09
-3.04657e-09
-6.26922e-10
4.888e-10
2.08126e-09
4.65218e-09
6.70192e-09
6.11412e-09
2.69561e-09
9.58255e-11
8.26379e-10
1.03683e-09
-1.87532e-10
-5.30209e-12
-7.17421e-11
-2.76207e-11
-2.80482e-12
-3.13522e-12
-4.05312e-11
-6.20422e-11
4.05674e-11
1.15691e-10
1.62282e-11
-2.19848e-13
-6.61944e-11
-4.01542e-10
-4.51555e-10
2.21525e-11
1.11537e-09
1.87034e-09
6.84524e-10
-7.41631e-10
-6.40824e-10
1.86039e-10
3.25365e-10
3.55494e-09
-9.25711e-11
-1.46448e-09
-8.98536e-09
-7.40739e-09
-2.01335e-09
1.76226e-10
2.42899e-10
1.68098e-10
3.72092e-10
9.38817e-10
1.41074e-09
1.17584e-09
2.78335e-10
2.12187e-10
1.82116e-09
2.75195e-09
-3.4095e-11
-9.62852e-11
-8.18128e-13
-3.43534e-11
-1.33817e-12
9.62643e-13
-1.71945e-11
-3.53497e-11
-2.01913e-12
2.46889e-12
2.07922e-11
3.40391e-11
-6.93746e-12
-1.23195e-10
-3.33122e-10
1.25486e-10
1.72032e-09
2.95823e-09
1.26923e-09
-2.48311e-10
-3.47821e-10
-3.40868e-12
1.77115e-09
1.35351e-08
1.69512e-09
-4.10767e-12
-7.35451e-09
-6.68771e-09
-1.33155e-09
1.43552e-10
4.13444e-11
1.13682e-12
1.97786e-12
9.6347e-11
2.07974e-10
1.04753e-10
1.73346e-11
1.30398e-09
4.83531e-09
6.95938e-09
2.65818e-09
-8.19113e-10
-5.68622e-10
-2.65428e-11
-2.295e-11
4.78929e-12
-2.16718e-11
-8.80557e-11
-1.72017e-11
4.93669e-12
1.4937e-10
1.46942e-10
4.7777e-12
-3.65592e-11
-3.58961e-10
2.84031e-10
3.23135e-09
4.9338e-09
1.70597e-09
-1.05029e-10
-3.47235e-10
-5.41153e-11
6.10061e-10
1.68376e-08
7.23296e-09
-1.03628e-09
-6.84642e-09
-7.27771e-09
-1.41175e-09
1.09668e-10
2.38832e-10
1.66576e-10
1.67384e-10
2.47559e-10
2.12533e-10
3.58189e-11
7.85346e-11
1.05797e-09
5.31776e-09
1.08255e-08
9.24631e-09
-3.2575e-10
-2.47174e-09
-1.58385e-10
-7.10819e-11
3.90145e-12
2.66784e-11
-2.01131e-10
-1.29986e-10
-9.0077e-12
2.13907e-10
5.75214e-10
6.49745e-11
2.87216e-13
-1.83554e-10
7.99187e-10
5.00209e-09
5.55747e-09
1.10503e-09
-8.79287e-11
-2.21221e-10
-1.75049e-10
-9.50263e-11
1.32886e-08
1.15193e-08
-3.23615e-09
-3.2822e-09
-3.82065e-09
-6.04287e-10
8.42579e-11
3.38742e-10
5.01049e-10
5.85181e-10
4.49396e-10
1.26276e-10
4.55709e-11
1.9941e-11
9.04631e-10
3.82078e-09
1.00531e-08
1.42562e-08
5.78615e-09
-2.62932e-10
-2.36528e-09
-2.59581e-13
-3.27299e-11
2.6649e-10
-1.26455e-10
-5.95118e-10
-7.39318e-11
-4.56117e-10
7.73298e-10
5.11339e-10
6.72747e-11
5.26945e-10
2.36996e-09
6.11129e-09
3.72307e-09
3.07542e-10
-7.41168e-11
-8.48569e-11
-1.42224e-10
-1.9421e-10
6.57078e-09
9.76088e-09
-5.52355e-09
-2.40395e-10
-7.40129e-10
-1.14216e-10
1.09402e-10
3.65104e-10
5.42099e-10
2.93442e-10
-1.10161e-09
-2.98447e-09
-1.98144e-09
-6.79607e-11
2.71e-10
2.70054e-09
6.69034e-09
1.25806e-08
1.33148e-08
9.03905e-09
-4.78081e-09
-7.49434e-10
-1.94351e-11
6.85484e-10
5.55541e-10
-1.00738e-09
-1.0604e-09
-1.48298e-10
-2.53372e-09
1.28035e-09
1.31291e-11
2.3461e-09
5.88573e-09
6.13766e-09
1.74605e-09
-4.27285e-11
-4.30704e-11
-3.31356e-11
-2.66879e-11
-2.33911e-10
6.07247e-10
3.4557e-09
-7.05495e-09
-5.45723e-10
-1.16285e-12
-2.74594e-12
1.54348e-10
4.16455e-10
5.52148e-10
1.29105e-11
-2.59299e-09
-6.9445e-09
-7.16311e-09
-1.74936e-09
-1.85803e-11
1.13795e-09
4.04118e-09
7.27217e-09
1.2881e-08
1.48982e-08
1.65748e-09
-2.69778e-09
-3.01873e-13
6.37442e-10
8.36527e-10
1.8601e-10
-7.29009e-10
-1.65278e-10
-2.70997e-09
-4.43005e-09
1.10702e-09
1.57578e-09
9.17034e-09
6.32629e-09
8.52898e-10
-3.36668e-11
-5.53737e-11
-3.7725e-11
-2.77341e-12
-4.81041e-10
-2.53773e-09
-2.36091e-09
-6.6124e-09
-1.90817e-09
-7.18296e-11
9.95134e-12
1.92382e-10
3.77561e-10
4.83302e-10
-1.02431e-10
-3.32319e-09
-9.23637e-09
-1.05943e-08
-4.26613e-09
-9.12943e-11
7.66561e-11
1.90292e-09
3.21338e-09
6.66996e-09
1.18616e-08
1.40398e-08
-2.37255e-09
-2.93388e-11
-5.20941e-10
-3.48207e-10
6.49749e-10
3.91022e-10
-9.49173e-11
-3.79368e-10
-6.71424e-09
-2.48472e-09
6.95979e-11
5.16724e-09
5.96752e-09
1.46516e-09
2.14428e-10
-4.85702e-11
-7.10973e-11
-3.46026e-11
-9.00457e-10
-3.34877e-09
-4.54701e-09
-3.35586e-09
-1.82562e-10
1.41088e-10
3.4278e-11
1.24982e-10
2.51931e-10
3.79676e-10
-1.44635e-10
-3.15296e-09
-9.6846e-09
-1.22764e-08
-5.52557e-09
-2.89485e-10
-9.41241e-11
7.31028e-10
1.16713e-09
1.7979e-09
5.13801e-09
1.72931e-08
5.93962e-10
-1.76123e-10
-1.20954e-09
-1.37378e-09
2.88383e-10
2.93718e-10
5.31222e-12
-8.98729e-11
-2.68847e-09
-6.371e-09
2.68835e-10
5.07759e-10
5.49293e-09
3.58671e-09
8.98708e-10
-1.15622e-10
-1.4318e-10
-3.03028e-11
-7.88683e-10
-2.96903e-09
-3.55644e-09
1.53412e-09
2.18058e-09
5.22064e-11
-2.38756e-12
1.07831e-11
2.1028e-10
3.42719e-10
-8.60994e-11
-2.07244e-09
-7.53938e-09
-1.2752e-08
-7.31249e-09
-6.36715e-10
-9.51772e-11
3.89952e-10
6.73555e-10
3.56413e-10
1.46486e-09
7.89959e-09
1.9097e-09
-1.76288e-10
-5.32647e-10
-5.65309e-10
1.1018e-10
5.40945e-11
1.1373e-11
-1.78026e-10
-1.91518e-09
-5.58943e-09
-1.52777e-09
1.31709e-10
3.51874e-09
4.47093e-09
1.0056e-09
-3.61622e-10
-2.85952e-10
-8.09026e-13
-9.88286e-12
-9.86613e-10
-1.15866e-09
1.62522e-09
6.38144e-10
4.91178e-12
-3.15746e-12
4.39986e-11
3.33383e-10
4.46012e-10
6.21869e-11
-4.9236e-10
-2.63674e-09
-8.90439e-09
-9.54786e-09
-2.10247e-09
-2.06668e-12
1.72309e-10
7.29811e-10
4.56744e-10
9.16783e-10
1.34803e-09
4.4564e-10
-9.10712e-12
-2.54932e-11
-1.46121e-11
6.90244e-12
7.3405e-14
2.95067e-11
-8.21604e-11
-2.13526e-09
-6.23416e-09
-3.28861e-09
8.9157e-10
9.28296e-10
2.85316e-09
4.78099e-10
-6.74157e-10
-5.99343e-10
-9.61161e-12
4.17528e-10
1.5671e-09
6.99268e-10
5.27862e-10
2.66718e-10
7.51859e-11
2.08544e-12
1.40093e-10
5.37681e-10
5.87237e-10
1.91921e-10
1.02905e-12
-4.30537e-11
-2.11328e-09
-8.06072e-09
-4.9876e-09
-3.44187e-10
2.2868e-12
5.35507e-10
1.0204e-09
9.07238e-10
2.74394e-10
2.73664e-11
9.62682e-12
8.89472e-12
-7.8603e-13
8.6281e-13
4.38596e-15
1.07194e-13
2.01714e-11
-1.52024e-09
-7.04002e-09
-4.82401e-09
1.16872e-09
1.13372e-11
1.02098e-09
1.19281e-11
-1.13239e-09
-9.65989e-10
3.34942e-11
2.31742e-10
3.30781e-09
3.16876e-09
1.50659e-09
6.87787e-10
3.17896e-11
-1.33048e-10
-1.02763e-09
-4.91819e-10
4.96502e-10
2.51621e-10
1.91115e-11
5.95879e-11
-4.12425e-12
-3.05833e-09
-6.31537e-09
-1.75691e-09
-1.44622e-11
1.23714e-10
7.90956e-10
7.07501e-10
3.10213e-10
7.40471e-11
6.03221e-11
6.69424e-11
9.21215e-11
3.87893e-11
7.98345e-13
1.07378e-11
3.14656e-12
-8.47225e-10
-6.087e-09
-5.34702e-09
4.87548e-10
6.20551e-11
4.40207e-10
-4.68475e-11
-1.1908e-09
-7.08575e-10
9.03859e-11
1.97968e-11
2.04727e-09
4.01769e-09
1.62262e-09
-3.16839e-11
-3.12354e-10
-2.74943e-09
-2.1845e-09
-1.80164e-10
2.14005e-11
1.61287e-11
3.58323e-11
1.07798e-10
-1.37075e-11
-4.77301e-10
-5.02872e-09
-4.09435e-09
-4.56977e-10
7.74697e-13
3.50041e-10
3.1375e-10
2.15963e-10
3.08987e-11
-1.57342e-11
6.19267e-11
2.30167e-10
1.56225e-10
7.43553e-13
2.54733e-11
4.48344e-13
-7.33572e-10
-5.37497e-09
-5.90695e-09
-3.55711e-10
1.2395e-11
1.09579e-09
1.36897e-09
-3.24864e-10
-3.77687e-10
2.29926e-12
3.45247e-11
4.82877e-10
6.8061e-10
3.88141e-11
-2.78493e-10
-3.3412e-09
-3.63948e-09
-4.17154e-10
-8.41747e-11
7.05893e-10
1.28926e-09
2.53056e-10
1.21869e-11
6.33976e-14
-2.68093e-11
-2.16068e-09
-5.59275e-09
-2.37176e-09
-6.35212e-11
2.14267e-11
3.12509e-12
1.37114e-11
-2.93751e-11
-7.43607e-11
1.4262e-11
2.94379e-10
2.03683e-10
3.5275e-12
3.17484e-11
1.36477e-12
-4.68405e-10
-4.13436e-09
-4.68022e-09
-2.18429e-11
2.17057e-11
2.66942e-09
2.5327e-09
-1.95107e-10
-2.63788e-10
-1.22558e-12
5.48393e-11
4.23228e-11
1.24608e-10
6.25619e-10
-8.36327e-10
-2.69119e-09
-6.19493e-10
-3.07323e-10
-6.33965e-10
2.62922e-10
5.61281e-10
5.96419e-10
2.53591e-10
5.23586e-11
2.71322e-12
-1.61446e-10
-2.914e-09
-3.9327e-09
-9.98397e-10
1.84961e-11
-2.19224e-10
-5.90848e-11
-2.81551e-11
-3.01891e-10
-1.35726e-10
1.09381e-10
3.23137e-12
8.44626e-11
7.50932e-11
1.27875e-11
-1.37839e-10
-1.86135e-09
-1.40422e-09
4.31941e-10
4.40596e-11
1.06768e-09
4.5165e-10
-1.53493e-10
-8.04302e-11
-2.19218e-11
-1.19295e-11
1.59852e-10
8.57699e-10
7.98883e-10
-2.0763e-10
-8.07505e-12
-2.15496e-10
2.45848e-11
1.83402e-11
-5.21898e-14
3.36822e-12
2.90826e-10
3.15381e-09
3.66361e-09
8.804e-10
-6.55167e-11
-1.94447e-10
-1.73364e-09
-1.81359e-09
-6.76065e-10
-1.14696e-09
-5.5537e-10
-4.3397e-11
-3.91699e-11
-1.99065e-11
9.09262e-12
4.66479e-14
1.16216e-12
1.22317e-11
1.6913e-10
6.34366e-11
-7.9326e-10
-5.83554e-10
5.3462e-11
2.00691e-11
5.08032e-12
1.40612e-11
-3.98531e-11
-1.07626e-10
-8.9199e-11
-5.43886e-11
-1.95824e-11
1.13725e-10
9.74398e-11
2.59099e-14
4.30796e-12
-7.83526e-11
-7.16538e-12
-1.5828e-10
5.49586e-11
8.39219e-10
7.86139e-12
4.06914e-09
1.15858e-08
5.84686e-09
2.81619e-10
-2.56122e-11
-1.09927e-09
-1.99505e-09
-1.66463e-09
-3.6925e-10
-1.85467e-10
-1.30206e-10
-6.68559e-11
1.17763e-12
7.48894e-12
9.1897e-13
3.57409e-11
1.57575e-10
3.66774e-10
2.43959e-10
-4.82489e-10
-7.83083e-10
-4.34159e-10
-1.14606e-10
-3.45595e-13
4.42297e-12
7.17013e-11
2.60026e-11
-6.58129e-11
-1.7729e-11
-4.76875e-13
2.87177e-12
2.06648e-11
2.37592e-11
-2.40342e-11
-7.1632e-12
-5.78376e-11
-1.87404e-10
2.58434e-10
9.96079e-10
4.90659e-10
4.44113e-10
5.82344e-09
6.93176e-09
1.09656e-09
-2.02909e-12
-9.22767e-10
-1.68186e-09
-9.58205e-10
-3.34387e-11
-9.54971e-11
-8.25274e-12
-1.55715e-12
6.65931e-11
7.78124e-11
1.86794e-12
-1.74267e-14
3.81453e-11
2.16613e-10
1.33583e-10
-6.62603e-11
-7.19614e-11
-1.1892e-10
-3.06851e-10
-9.26453e-11
2.8908e-10
1.3746e-10
1.67888e-11
5.29682e-12
-3.57661e-12
-2.5613e-11
-1.52785e-12
2.96322e-11
6.44306e-12
1.5261e-11
7.72128e-11
-3.95947e-11
-3.2814e-10
-2.52199e-10
3.8435e-11
3.14182e-11
4.83161e-11
6.14818e-10
1.34379e-09
6.07261e-10
1.03033e-11
-3.94639e-11
-1.71661e-10
-4.88837e-11
-7.67129e-12
-5.48538e-11
-3.02573e-12
8.06484e-12
-1.24853e-13
-3.05818e-11
-3.70958e-11
-1.11679e-11
-5.53167e-11
1.0606e-10
-7.08512e-11
-6.23629e-11
-3.65393e-12
-2.24413e-12
-1.92839e-10
1.08108e-10
7.08814e-10
3.55181e-10
5.53808e-11
1.28156e-11
5.26528e-12
7.98013e-13
5.34707e-12
1.45669e-10
5.37653e-10
6.44244e-10
1.67594e-10
-3.29583e-10
-4.92282e-10
-2.76402e-10
-2.46526e-11
2.56717e-12
5.74271e-11
4.87402e-11
4.43173e-12
1.14058e-11
1.75118e-11
-1.03779e-10
-1.77363e-10
-5.05689e-11
-5.11894e-13
1.67859e-12
5.48857e-13
3.84369e-13
-1.94949e-11
-1.24221e-10
-3.33124e-10
-4.51348e-10
-9.387e-11
9.88941e-10
9.09658e-10
-3.4279e-10
-3.33427e-10
-3.49923e-11
-1.63378e-13
-1.53344e-14
2.92886e-12
5.31549e-11
1.82361e-10
2.3921e-10
1.68432e-10
9.80378e-11
6.10964e-11
1.65219e-11
2.11223e-12
1.21423e-11
-3.13274e-13
-2.93394e-11
-1.83813e-10
-1.23593e-10
-4.36843e-13
2.00675e-11
2.89162e-10
1.15186e-10
2.02987e-11
1.13845e-10
-1.33713e-10
-4.3208e-10
-3.7242e-10
-1.17161e-10
-3.80363e-10
2.06109e-10
2.35555e-10
4.57734e-12
3.15285e-11
-6.84044e-10
-1.71746e-09
-1.25011e-09
-2.46548e-10
1.59941e-10
2.26694e-10
1.35848e-10
-8.45607e-12
-6.11767e-11
-6.95907e-11
-8.84129e-11
-8.99283e-11
-4.74274e-11
-5.52717e-12
3.4767e-13
4.59463e-11
2.33613e-10
4.08715e-10
2.8703e-10
6.21966e-11
1.19247e-12
4.74778e-16
-3.10376e-12
-5.08272e-12
-1.95814e-11
-2.0137e-10
-1.86741e-10
2.50643e-10
2.23e-10
8.80738e-12
3.75643e-10
3.39198e-10
-4.24499e-10
-1.05347e-09
-9.88652e-10
-1.31924e-11
6.71133e-13
4.05101e-12
2.4696e-11
2.87676e-11
-2.6945e-11
-7.21058e-11
-7.09066e-11
-5.8356e-11
-6.08817e-11
-1.16872e-10
-2.68076e-10
-5.19853e-10
-8.41594e-10
-1.22978e-09
-1.68571e-09
-2.13813e-09
-2.27114e-09
-1.55988e-09
-8.6654e-11
3.69204e-10
1.01345e-10
4.15317e-11
-9.43607e-11
-1.85968e-10
-1.51466e-10
-1.34063e-10
-1.71409e-10
-2.29622e-10
-2.40317e-10
-2.35567e-10
-3.11647e-10
-3.91057e-10
-2.36451e-10
-3.15991e-12
-1.20687e-10
-6.09598e-11
2.82716e-12
3.6402e-13
-9.08003e-12
3.45153e-11
3.6112e-11
8.1628e-11
7.87609e-11
-4.16216e-10
-9.37193e-10
-8.64781e-10
-4.37274e-10
-1.22249e-10
-1.07868e-10
-6.55866e-10
-2.12537e-09
-4.52786e-09
-7.40293e-09
-1.05897e-08
-1.4202e-08
-1.79714e-08
-1.97941e-08
-1.45136e-08
3.52562e-10
7.59601e-09
1.50581e-09
7.77573e-11
-1.0392e-09
-3.98979e-09
-4.88602e-09
-3.93335e-09
-2.99834e-09
-2.62154e-09
-2.39769e-09
-2.13544e-09
-1.81473e-09
-1.69053e-09
-1.88697e-09
-8.14504e-10
-4.62557e-11
-8.76428e-11
3.49629e-10
3.21288e-12
3.09743e-11
4.71216e-11
4.89575e-11
8.27978e-11
-7.26822e-12
-6.61328e-10
-1.17381e-09
-8.4035e-10
-1.15129e-10
4.61191e-10
6.22577e-10
2.07973e-10
-7.35042e-10
-2.17749e-09
-3.65288e-09
-4.85293e-09
-6.0155e-09
-7.34302e-09
-8.48255e-09
-7.08181e-09
3.34361e-10
5.71629e-09
1.04377e-09
6.04908e-11
-7.88595e-11
-3.8448e-09
-6.92621e-09
-4.65206e-09
-1.98227e-09
-5.05601e-10
6.34222e-10
1.52604e-09
1.74302e-09
1.46476e-09
6.34958e-10
-9.90426e-11
-4.6448e-13
-1.40529e-11
1.07907e-09
4.27274e-10
2.22471e-12
8.40904e-13
1.1031e-11
1.46834e-11
-7.32684e-12
-3.31225e-10
-6.22732e-10
-3.89178e-10
6.78446e-11
3.80627e-10
4.14922e-10
2.25058e-10
-4.00644e-11
-4.67572e-10
-8.88712e-10
-1.03744e-09
-1.09201e-09
-1.06865e-09
-1.16098e-09
-1.40833e-09
-2.67852e-10
9.29791e-10
3.82887e-10
4.58628e-09
-5.49663e-10
-5.03231e-10
-3.50731e-09
-1.62034e-09
-1.5406e-10
1.69738e-10
6.33856e-10
1.48429e-09
1.84739e-09
1.2918e-09
3.96083e-10
1.01686e-12
1.11263e-10
3.87835e-10
2.94521e-09
3.03828e-09
3.4067e-10
1.43074e-10
6.9946e-14
5.19657e-14
1.72783e-13
-1.6824e-10
-4.19904e-10
-2.90024e-10
1.07179e-10
3.99709e-10
3.6065e-10
1.66314e-10
4.52869e-11
-1.11613e-10
-3.28449e-10
-4.35053e-10
-4.15926e-10
-1.83585e-10
-7.95371e-11
-3.72109e-10
-6.92469e-10
1.89026e-10
1.17011e-09
1.41507e-08
1.28303e-09
-1.72768e-10
-2.75724e-09
-1.31861e-09
-3.0148e-11
1.51966e-13
4.25532e-11
4.8633e-10
9.79479e-10
7.16455e-10
1.12766e-10
2.0221e-10
1.21145e-09
1.88337e-09
5.57806e-09
8.55243e-09
3.07908e-09
1.69152e-09
5.24311e-11
4.80235e-13
5.21046e-12
-1.55322e-10
-4.67856e-10
-3.94562e-10
1.11993e-10
8.01127e-10
9.42815e-10
4.83403e-10
1.99575e-10
9.91033e-11
-2.56841e-12
-1.3091e-10
-1.7154e-10
-4.25353e-12
-4.98418e-11
-7.42066e-11
-1.0571e-09
-3.36351e-10
1.5342e-10
1.45371e-08
8.02927e-09
-1.55259e-09
-2.93858e-09
-2.71494e-09
-1.69896e-10
1.23982e-11
4.28602e-11
4.11845e-10
9.66305e-10
8.1079e-10
2.45816e-10
2.30012e-11
1.04947e-09
2.92577e-09
6.5173e-09
1.27862e-08
1.00697e-08
7.86872e-09
8.39671e-10
5.31312e-13
3.3072e-11
-1.95244e-10
-6.03852e-10
-5.74313e-10
-7.53402e-11
8.98735e-10
1.84492e-09
1.42519e-09
6.91495e-10
4.15326e-10
2.52993e-10
4.56221e-11
-1.87816e-11
-8.33513e-11
-2.46989e-10
-1.99501e-11
-9.484e-10
-6.26145e-10
4.45903e-11
1.12104e-08
1.20774e-08
-3.00111e-09
-1.6349e-09
-2.86741e-09
-3.87144e-10
8.11551e-11
2.69725e-10
8.25263e-10
1.22754e-09
6.27978e-10
7.43559e-11
2.49038e-11
2.54526e-10
2.25466e-09
6.17078e-09
1.3524e-08
1.79695e-08
1.79414e-08
5.27537e-09
7.35788e-11
1.18982e-10
-2.277e-10
-8.22152e-10
-8.67665e-10
-3.88272e-10
2.25744e-10
1.25778e-09
2.23685e-09
2.18033e-09
1.56868e-09
7.87812e-10
1.39129e-10
2.53856e-14
-2.85282e-10
-3.4541e-10
-5.22943e-11
-6.59454e-10
-2.52895e-10
-7.86908e-11
8.29293e-09
9.19686e-09
-2.89499e-09
-4.17592e-10
-1.36285e-09
-2.72483e-10
1.28705e-10
5.49622e-10
1.12919e-09
6.00435e-10
-2.10224e-09
-3.51887e-09
-1.07197e-09
-1.56035e-13
7.3668e-10
4.26456e-09
1.14485e-08
2.17639e-08
2.50774e-08
1.57117e-08
1.36998e-09
1.47183e-10
-2.07951e-10
-1.14714e-09
-1.16733e-09
-6.79341e-10
-1.93147e-10
1.23118e-10
1.15906e-09
3.71678e-09
5.14939e-09
3.04964e-09
4.51922e-10
2.42116e-11
-3.41631e-10
-3.06293e-10
-9.36823e-11
-3.07006e-10
-5.30024e-13
-1.10024e-09
3.52121e-09
4.29665e-09
-2.12186e-09
-1.11267e-11
-3.39191e-10
-7.13283e-11
1.92513e-10
7.14524e-10
1.28407e-09
-8.64003e-11
-5.25694e-09