/*--------------------------------*- C++ -*----------------------------------*\
| =========                 |                                                 |
| \\      /  F ield         | OpenFOAM: The Open Source CFD Toolbox           |
|  \\    /   O peration     | Version:  5.0                                   |
|   \\  /    A nd           | Web:      www.OpenFOAM.org                      |
|    \\/     M anipulation  |                                                 |
\*---------------------------------------------------------------------------*/
FoamFile
{
    version     2.0;
    format      ascii;
    class       volScalarField;
    location    "50.4676134421789371";
    object      UUWMean;
}
// * * * * * * * * * * * * * * * * * * * * * * * * * * * * * * * * * * * * * //

dimensions      [0 3 -3 0 0 0 0];

internalField   nonuniform List<scalar> 
60000
(
-1.75419e-12
-1.50823e-11
-2.50106e-11
-3.18148e-12
5.36289e-12
7.24131e-14
1.62969e-12
4.59592e-12
1.56946e-12
-1.45704e-11
-1.4362e-11
-3.61166e-12
-7.63158e-13
-7.66411e-13
1.86828e-13
1.68283e-12
1.39619e-12
4.81693e-12
4.27868e-11
1.91267e-10
3.57556e-10
1.64174e-10
-3.39452e-10
-7.12817e-10
-9.57528e-10
-1.10661e-09
-1.09331e-09
-7.38162e-10
-2.27572e-10
-3.1624e-11
2.75282e-11
1.56343e-10
2.74967e-10
1.9818e-10
2.76418e-11
2.06136e-11
7.01603e-13
-8.42954e-12
-2.52125e-11
-1.151e-11
-1.30684e-10
-1.3123e-11
-1.61048e-11
4.62666e-11
6.83194e-11
6.20155e-12
1.33573e-11
1.52521e-11
-1.54898e-10
-6.02722e-10
-6.79353e-10
-2.74453e-10
-3.89964e-11
1.65152e-12
3.98476e-11
1.67004e-10
3.35957e-10
5.32341e-10
8.01871e-10
9.84455e-10
4.6745e-10
-2.00269e-09
-5.7649e-09
-8.06956e-09
-8.37238e-09
-6.51125e-09
-4.40481e-09
-3.5436e-09
-2.00001e-09
-3.45858e-10
2.52821e-10
1.10978e-09
2.54438e-09
3.01555e-09
1.47595e-09
1.03393e-10
1.19932e-11
-3.83331e-11
-4.41136e-10
-4.64816e-10
-5.95342e-10
-1.09551e-10
-1.8906e-12
3.82535e-12
3.04047e-11
3.82598e-11
1.31905e-12
1.42074e-11
-1.15529e-10
-8.08947e-10
-1.27247e-09
-7.19074e-10
-1.2816e-10
3.62653e-13
3.98142e-11
2.52381e-10
5.59125e-10
5.64213e-10
4.09627e-10
2.82299e-10
2.05159e-11
-1.55643e-09
-5.48281e-09
-7.52602e-09
-6.35563e-09
-2.98105e-09
4.33971e-11
7.05004e-10
1.79694e-10
3.19615e-11
7.02953e-11
2.12476e-10
7.62498e-10
1.46879e-09
1.26233e-09
2.89853e-10
4.47375e-12
-1.45292e-12
-3.01623e-10
-8.9649e-10
-4.17082e-10
-7.18405e-11
-4.16628e-14
7.156e-12
4.55233e-11
1.41743e-10
1.4021e-10
1.46911e-11
-3.76647e-12
-2.929e-10
-8.4222e-10
-4.5836e-10
-2.50165e-11
8.97404e-13
6.20718e-12
7.63859e-11
3.44119e-10
1.74289e-10
2.33611e-12
5.25595e-11
2.68346e-13
-2.32201e-10
-2.75948e-09
-4.24747e-09
-2.86708e-09
-7.11346e-10
5.85209e-10
6.06929e-10
1.56723e-10
3.1943e-12
6.42527e-11
1.04507e-10
2.04782e-11
2.32668e-11
8.05585e-11
2.36118e-12
1.50329e-10
7.41742e-12
-6.15797e-13
-3.23227e-10
-2.87214e-10
-8.1149e-11
-1.13779e-11
1.33702e-11
1.06939e-10
2.83776e-10
5.30406e-10
3.19317e-10
2.10259e-11
-9.17567e-12
-5.04926e-10
-5.83609e-10
-2.37679e-11
-1.93093e-11
8.69372e-11
2.03011e-11
3.92421e-10
1.35324e-10
1.72613e-10
9.89803e-10
1.9334e-10
-2.32447e-11
-1.98011e-09
-4.42757e-09
-2.54939e-09
-4.38263e-10
3.11757e-10
3.27164e-10
9.3597e-11
1.73761e-11
2.1776e-10
3.9437e-10
4.06364e-10
2.89011e-10
1.56669e-10
1.92573e-10
5.75729e-10
3.88031e-10
-6.83542e-11
-8.91648e-12
-8.98132e-11
-2.35927e-10
-1.18526e-11
-1.41607e-11
4.69404e-11
1.9559e-10
5.51353e-10
7.82621e-10
3.48989e-10
-5.892e-11
-3.02771e-11
-5.92968e-10
-2.19119e-10
-6.68229e-12
2.95628e-11
1.31102e-10
1.10956e-09
4.87073e-10
8.82801e-11
1.92784e-09
1.36575e-09
-4.55094e-10
-1.70993e-09
-6.17595e-09
-2.74693e-09
-3.07893e-10
1.49518e-10
2.39326e-10
2.09525e-10
7.7847e-11
1.68817e-12
9.20246e-11
2.18362e-10
3.99698e-10
6.26166e-10
5.65801e-10
5.16857e-10
5.91257e-10
2.09893e-10
-1.62568e-11
-9.39481e-13
-9.88381e-11
-8.86962e-11
-3.02679e-12
-9.39403e-13
3.06415e-11
1.97984e-10
6.24589e-10
8.46536e-10
1.40495e-10
-3.7053e-10
-8.24624e-12
-1.90508e-10
-2.36809e-11
2.36685e-11
9.47258e-10
2.86762e-09
1.09405e-09
5.49009e-12
1.20152e-09
3.03448e-09
-1.47965e-09
-5.25092e-10
-4.82404e-09
-1.49876e-09
-1.39275e-10
7.72088e-11
1.77583e-10
1.99972e-10
1.96152e-10
1.21646e-10
2.08942e-11
4.08448e-12
9.0238e-11
5.65e-10
1.18871e-09
8.63121e-10
4.71178e-10
3.36145e-10
9.26872e-11
3.77469e-11
-2.44805e-12
-6.16887e-12
-7.0636e-12
-5.49867e-12
-8.31806e-14
2.85509e-12
1.04885e-10
5.75505e-10
7.04161e-10
-1.13906e-09
-1.09813e-09
-1.57416e-11
-6.42678e-11
4.26517e-10
3.62545e-09
4.85703e-09
1.41766e-09
1.80198e-11
-2.22405e-11
1.91304e-09
-2.47071e-09
-3.26111e-10
-1.08696e-09
-3.95318e-10
-9.43312e-11
2.39106e-11
1.36755e-10
1.77482e-10
1.95039e-10
1.59971e-10
-1.47169e-11
-7.59812e-11
-7.00091e-13
7.74066e-11
9.1692e-10
1.36513e-09
6.75218e-10
2.85861e-10
1.87475e-10
1.66663e-10
1.38609e-11
-8.74374e-11
-2.84291e-11
-3.5257e-12
-1.24198e-11
1.15025e-11
2.45292e-11
2.28052e-11
5.11578e-10
-1.12774e-09
-3.53693e-09
-6.11255e-10
-1.93535e-11
1.6934e-09
6.03105e-09
4.66461e-09
1.00952e-09
4.33134e-12
-1.07192e-10
-5.3162e-10
-3.00034e-09
-2.96652e-09
-8.40359e-11
-1.74101e-11
-9.87324e-11
-1.03479e-10
6.13341e-11
1.70384e-10
1.9075e-10
8.33249e-11
-3.06577e-10
-6.13077e-10
-2.50289e-10
-1.42137e-12
2.24224e-10
1.07122e-09
1.0217e-09
4.73708e-10
2.22221e-10
2.82563e-10
2.49667e-10
-1.99238e-10
-1.12598e-10
-1.20082e-12
-1.2101e-11
4.9809e-11
1.21215e-10
9.43293e-11
3.57558e-11
-6.17545e-10
-4.96013e-09
-1.38099e-09
2.76046e-11
2.82324e-09
5.44999e-09
2.77355e-09
4.79881e-10
2.90572e-12
-2.73138e-12
-5.32199e-10
-2.26113e-09
-4.25801e-09
-1.48741e-09
-7.804e-11
-1.287e-10
-2.99703e-10
-3.37453e-11
1.59875e-10
1.81263e-10
-6.95175e-11
-7.85289e-10
-1.29797e-09
-7.93162e-10
-8.57745e-11
1.01881e-11
4.03964e-10
8.57593e-10
7.06358e-10
3.53932e-10
2.55748e-10
4.34055e-10
-1.26955e-10
-8.82263e-11
-4.56312e-12
-1.0394e-11
1.6308e-11
9.2899e-11
1.79548e-10
3.12487e-11
-1.40276e-10
-3.89765e-09
-2.33959e-09
1.16884e-10
1.78304e-09
3.60477e-09
1.76246e-09
2.70573e-10
2.19499e-12
-4.77707e-13
-4.56338e-11
-5.83178e-10
-1.77769e-09
-1.5127e-09
-2.75924e-10
-9.23374e-11
-3.39793e-10
-7.31565e-11
1.34396e-10
1.6207e-10
-2.3957e-10
-1.47247e-09
-2.24902e-09
-1.31745e-09
-1.85885e-10
1.54192e-13
1.47399e-10
4.30794e-10
4.75344e-10
3.02104e-10
6.63124e-11
2.20757e-10
-2.54343e-11
-3.09459e-11
-7.36318e-14
-4.27675e-12
4.52702e-12
3.47412e-13
6.31788e-11
7.76537e-11
-5.26706e-12
-1.70946e-09
-3.17505e-09
4.60053e-10
2.69913e-10
2.18752e-09
1.22404e-09
5.9304e-11
-6.39094e-12
4.0555e-14
2.76057e-12
8.42428e-11
2.24186e-10
-3.88705e-10
-2.93263e-10
-1.23347e-11
-1.30104e-10
-3.31831e-11
9.98499e-11
1.5406e-10
-2.28115e-10
-1.88899e-09
-3.54156e-09
-2.31324e-09
-3.45831e-10
-3.43591e-12
1.12159e-10
2.71746e-10
2.20711e-10
1.04338e-10
3.71945e-12
5.65542e-12
1.87754e-12
-4.53183e-12
-2.56849e-11
-9.01216e-11
-2.1329e-11
5.4504e-11
1.405e-12
6.00691e-11
9.04341e-13
-5.85612e-10
-3.06798e-09
-5.22618e-11
5.13118e-11
8.33726e-10
4.20644e-10
-2.56292e-10
-5.85704e-11
1.06047e-11
9.68432e-12
1.31877e-10
3.33815e-10
-6.31998e-11
-2.33556e-10
-8.6122e-11
-1.55384e-12
-2.02646e-13
7.71202e-11
1.55968e-10
-1.95291e-11
-1.3412e-09
-4.1395e-09
-4.15332e-09
-1.04801e-09
-3.83871e-12
4.8555e-11
2.32014e-10
1.98464e-10
7.76532e-11
1.53981e-11
1.26393e-11
8.18872e-12
-3.42661e-13
-4.60395e-11
-1.72849e-10
-2.07909e-10
-1.86537e-11
5.72323e-12
6.07271e-11
3.49937e-11
-9.4976e-11
-2.28791e-09
-1.18903e-09
4.30712e-10
5.78484e-11
-9.41153e-11
-6.87841e-10
-2.88118e-10
1.28866e-10
9.80042e-12
2.3507e-10
1.78066e-10
-3.26629e-11
-4.28242e-10
-4.92669e-10
-5.75713e-11
2.17387e-12
8.43019e-11
1.45785e-10
1.15603e-10
-2.91879e-10
-2.57654e-09
-5.57542e-09
-3.05041e-09
-1.89801e-10
-1.01051e-11
1.36567e-10
1.92379e-10
1.27749e-10
3.29479e-11
3.49243e-13
8.34828e-14
1.06162e-11
1.05976e-12
-9.90851e-11
-2.0386e-10
-1.18759e-10
-2.40632e-12
1.56316e-11
3.53156e-11
1.99928e-12
-9.67468e-10
-1.65893e-09
1.92517e-10
4.61208e-12
-2.94091e-10
-1.0868e-09
-4.82216e-10
2.13941e-10
1.18715e-11
6.00251e-10
1.00733e-09
1.68425e-10
-6.63982e-10
-3.3252e-10
-5.43185e-12
-4.67263e-12
5.76373e-11
6.70215e-11
5.67359e-11
8.62519e-11
-6.30488e-10
-4.39632e-09
-5.79016e-09
-1.31818e-09
-4.02403e-12
3.95933e-11
1.32739e-10
9.26477e-11
4.13271e-11
3.03178e-11
3.77892e-11
5.26472e-11
5.28044e-11
1.89664e-11
-1.57949e-11
-1.52164e-11
-3.86638e-12
4.21875e-13
7.36724e-12
8.73799e-11
-2.48412e-10
-1.25678e-09
-5.35825e-10
-8.86879e-12
-2.67886e-10
-4.9885e-10
-1.89511e-10
6.86107e-11
1.05484e-10
2.22437e-11
6.0812e-10
3.12636e-10
-3.10796e-10
-1.12994e-10
-5.05523e-12
-7.4286e-13
7.33698e-12
3.02351e-11
1.32578e-11
3.45653e-11
7.87213e-11
-2.04877e-09
-6.42574e-09
-4.29867e-09
-3.89109e-10
-8.33033e-12
5.74585e-11
6.42694e-11
3.5266e-11
4.02175e-11
9.13646e-12
-4.60481e-11
5.76236e-11
1.36703e-10
2.99927e-11
4.31972e-14
-7.70675e-13
8.6927e-14
4.78787e-11
2.63437e-10
-4.55954e-12
-8.03869e-10
-3.41369e-10
-3.88918e-12
4.87692e-12
-6.57405e-11
-7.61701e-11
5.86632e-12
1.86248e-11
7.2605e-11
6.24131e-11
2.35572e-11
-7.77915e-11
-5.54166e-11
-6.13608e-11
-1.56197e-10
3.38143e-10
6.11693e-10
3.32664e-10
2.29107e-11
9.75099e-11
-3.10783e-10
-3.57966e-09
-5.9289e-09
-2.5791e-09
-2.20932e-10
2.53075e-13
1.32869e-11
2.20056e-11
4.9187e-11
-1.42137e-11
-1.54002e-10
3.24626e-11
2.44341e-10
2.7007e-11
2.33906e-11
6.99066e-12
-3.11103e-13
2.96464e-11
2.90669e-10
1.02532e-10
-3.58516e-10
-5.32585e-11
1.5341e-11
1.30924e-10
-1.81332e-10
-1.86108e-10
-9.38806e-12
9.48809e-13
8.95437e-11
5.21929e-10
3.80636e-10
-3.45672e-10
-5.04456e-11
-2.94641e-10
-2.22009e-10
2.50566e-10
1.79315e-10
8.45254e-11
1.46315e-10
1.54325e-10
1.7138e-12
-4.19419e-10
-3.2294e-09
-4.4368e-09
-1.80833e-09
-1.3367e-10
8.43495e-12
-2.59924e-13
-7.14262e-11
-4.9882e-10
-6.82513e-10
-9.63421e-11
4.94592e-11
7.91177e-11
3.7062e-10
1.92709e-10
3.35674e-12
-2.79618e-11
3.88197e-12
2.62112e-10
2.13922e-10
2.39178e-11
6.74655e-11
-5.59082e-11
-4.87236e-10
-3.00658e-10
-1.78635e-11
-1.00979e-13
6.10104e-12
1.21792e-10
7.32941e-11
4.86968e-12
9.29228e-11
1.65625e-10
-1.74172e-11
-1.51018e-11
-1.42841e-10
1.36571e-10
2.7066e-11
1.29928e-09
1.40364e-09
4.48713e-11
-1.87133e-10
-1.79151e-09
-2.13216e-09
-7.34537e-10
-5.14908e-11
-1.27097e-10
-1.64986e-11
-5.218e-10
-6.37326e-10
-5.74528e-11
6.32695e-12
2.31794e-11
4.94997e-11
2.79062e-11
5.05218e-13
-7.85147e-11
-4.8274e-10
-2.81171e-10
9.07327e-11
5.50467e-12
4.37095e-11
-4.27644e-11
-1.98565e-10
-1.40323e-10
-2.14613e-11
-2.34008e-12
-4.9434e-12
8.17122e-12
3.70405e-11
6.1121e-11
-2.41443e-11
-1.39245e-11
-1.15251e-10
-4.34017e-10
-7.65337e-11
6.53642e-10
3.66952e-10
3.13893e-10
2.27729e-09
1.14287e-09
-4.81744e-11
-9.36116e-11
-6.31173e-10
-6.52124e-10
-3.53896e-10
-6.747e-12
-2.3677e-13
-6.54608e-12
-9.38056e-12
-1.16531e-12
2.52972e-12
2.30134e-11
1.0645e-10
1.605e-10
7.93263e-11
-2.39544e-11
-1.6369e-10
-1.85205e-10
-5.86347e-11
-6.54506e-13
-6.6111e-12
9.23138e-12
4.45983e-11
5.41346e-11
2.42581e-11
2.17081e-13
-4.73366e-13
-8.72319e-12
-4.9928e-12
-5.60926e-12
-1.98092e-11
-6.79884e-12
-6.19422e-12
-4.1202e-11
-1.49009e-11
2.40161e-10
5.94239e-10
2.74137e-10
8.11229e-11
4.89068e-10
7.23689e-11
-1.09623e-11
-4.126e-11
-7.14317e-11
-2.73782e-11
-9.3195e-11
-1.0491e-10
-3.25046e-11
-2.38298e-13
-4.60772e-12
-6.5958e-13
2.34608e-13
3.76298e-11
1.26992e-10
7.49838e-11
6.31169e-13
-1.18446e-11
-6.46909e-11
-1.04043e-11
-4.44118e-11
-6.57556e-11
2.41065e-11
5.28389e-12
1.55216e-11
2.31614e-11
1.01594e-12
1.63886e-11
6.36062e-11
9.88231e-11
6.55783e-11
1.09047e-11
-1.34475e-13
-2.88094e-11
-1.2983e-10
-1.65836e-10
-8.69688e-12
1.76983e-10
1.23721e-10
2.2224e-12
6.51216e-11
6.26217e-11
-3.51303e-12
-2.85498e-12
-3.43674e-13
-2.00075e-11
-1.04779e-12
7.9176e-12
2.34478e-11
4.37261e-12
-9.53749e-12
-2.02833e-11
-5.12858e-11
-1.55552e-11
1.14722e-10
6.06929e-11
-9.03956e-13
-5.17984e-11
-1.26366e-10
-5.76231e-12
-1.04462e-10
5.79181e-12
3.71645e-10
2.97332e-10
8.54426e-11
1.8527e-11
1.1423e-11
1.33811e-11
5.31985e-12
7.11963e-12
7.73373e-11
1.23373e-10
-2.20566e-11
-2.40323e-10
-2.78044e-10
-1.61754e-10
-5.3941e-11
6.61608e-12
2.08116e-11
8.78943e-12
2.97446e-12
1.83233e-12
-2.06142e-12
-1.41913e-11
-2.06607e-11
-4.8225e-12
7.69189e-13
1.29428e-12
4.32336e-13
6.0961e-15
-5.98188e-12
-1.13486e-10
-4.26501e-10
-4.05184e-10
3.28747e-10
6.53672e-10
1.50459e-10
-5.62409e-11
-4.31044e-12
-1.10524e-13
-7.85802e-12
-1.13916e-12
6.29747e-11
5.86687e-11
7.41126e-12
7.69318e-12
4.87912e-11
1.06248e-10
1.48879e-10
1.41592e-10
8.25152e-11
1.80375e-11
-3.28689e-11
-7.94888e-11
-8.83736e-11
-3.96088e-11
-2.41547e-12
2.27573e-13
2.0948e-11
1.79553e-11
3.72298e-12
3.19699e-11
-1.37707e-11
-6.70721e-11
-4.92701e-11
-1.28784e-11
5.36063e-12
1.21117e-10
1.39385e-10
2.81648e-11
1.03301e-11
-2.24974e-10
-1.03112e-09
-1.1087e-09
-2.34491e-10
2.24784e-10
2.19429e-10
1.24172e-10
3.08595e-12
-1.11454e-10
-1.29631e-10
-6.91441e-11
-2.01404e-11
-1.99219e-12
-3.15004e-13
5.42145e-12
4.80965e-11
1.52419e-10
2.70438e-10
2.82056e-10
1.62815e-10
4.78946e-11
-3.77884e-12
-1.13958e-11
-3.70407e-13
-4.11055e-11
-1.37094e-10
-1.0004e-10
3.66317e-11
2.04396e-11
2.58309e-11
1.37742e-10
6.55151e-11
-1.53039e-10
-2.28848e-10
-1.31206e-10
-1.30804e-12
-7.35788e-13
-3.8376e-14
1.90401e-12
8.44386e-12
1.31078e-11
9.33825e-12
1.01391e-12
-7.17275e-12
-2.47145e-11
-4.65812e-11
-7.6925e-11
-1.26191e-10
-1.83196e-10
-2.2098e-10
-2.47776e-10
-2.37762e-10
-8.12205e-11
1.87845e-10
2.7619e-10
2.57576e-10
2.77112e-10
-5.29287e-11
-5.8556e-10
-8.01785e-10
-8.28588e-10
-6.69072e-10
-4.40547e-10
-3.10398e-10
-1.86989e-10
2.09909e-10
7.51214e-10
8.17893e-10
3.40458e-10
2.10926e-11
1.22264e-10
9.40041e-11
6.55554e-12
9.49899e-14
5.65031e-14
-7.50689e-12
-2.58051e-12
-1.85103e-12
3.69151e-13
1.25055e-11
8.2384e-11
1.73756e-10
6.99553e-11
-4.4784e-11
-1.67358e-10
-3.82045e-10
-5.927e-10
-7.42377e-10
-8.37565e-10
-9.35123e-10
-1.39124e-09
-2.24245e-09
-1.76109e-09
1.7905e-09
4.5983e-09
2.46966e-09
9.43851e-10
-1.05777e-09
-5.63882e-09
-8.94835e-09
-9.5237e-09
-7.46062e-09
-4.60273e-09
-2.49483e-09
-1.04156e-09
1.05232e-09
4.1165e-09
5.961e-09
4.37842e-09
1.06247e-09
1.00242e-10
8.26458e-10
1.39674e-10
-7.819e-12
-3.44194e-12
-3.15383e-11
-9.81731e-12
-4.47557e-12
-1.27597e-11
-5.19007e-11
-5.19687e-11
1.07877e-10
1.52776e-10
2.52475e-11
-6.39239e-11
-2.65548e-10
-4.959e-10
-5.06263e-10
-3.08656e-10
3.11492e-11
7.89451e-11
-6.88466e-10
-1.35835e-09
-2.38589e-10
1.87149e-09
8.73921e-10
6.30235e-11
-1.68916e-10
-3.62146e-09
-7.32199e-09
-6.55621e-09
-3.33127e-09
-1.0357e-09
-1.63522e-10
2.55229e-10
9.09733e-10
1.95456e-09
2.73876e-09
2.43591e-09
1.03054e-09
3.05339e-11
4.19027e-10
4.28852e-10
-8.79707e-11
-3.02119e-12
-3.08215e-11
-9.77426e-12
-9.8153e-13
-1.60684e-12
-1.79854e-11
-2.48219e-11
2.04735e-11
4.74787e-11
5.34066e-12
-7.24998e-14
-3.02479e-11
-1.7204e-10
-1.81767e-10
3.02537e-11
4.98929e-10
7.73804e-10
2.45146e-10
-3.09945e-10
-2.32483e-10
6.97089e-11
2.71388e-10
1.63402e-09
-8.0312e-11
-7.32493e-10
-3.76814e-09
-2.86845e-09
-6.96709e-10
8.39922e-11
8.31565e-11
5.72183e-11
1.43287e-10
3.75683e-10
5.54382e-10
4.40359e-10
8.69913e-11
1.2191e-10
8.03007e-10
1.16558e-09
-5.9619e-11
-3.34483e-11
-6.72352e-13
-1.32647e-11
-4.88926e-13
3.769e-13
-8.48229e-12
-1.43587e-11
-2.9912e-13
7.63268e-13
1.0685e-11
1.35885e-11
-2.43434e-12
-5.95116e-11
-1.41109e-10
7.66976e-11
7.75712e-10
1.22424e-09
4.69663e-10
-1.17368e-10
-1.34672e-10
-7.83699e-13
1.0538e-09
6.07148e-09
3.64512e-10
-2.86174e-11
-3.31102e-09
-2.67165e-09
-4.74351e-10
6.13738e-11
1.19247e-11
2.40628e-12
5.59488e-13
3.92611e-11
8.02747e-11
3.52196e-11
1.94914e-11
6.56452e-10
2.16929e-09
2.97709e-09
9.85379e-10
-3.37461e-10
-2.01939e-10
-1.46612e-11
-9.14002e-12
2.55648e-12
-1.29917e-11
-3.81047e-11
-5.80336e-12
3.70293e-12
6.70114e-11
5.85874e-11
1.00554e-12
-2.18156e-11
-1.58922e-10
1.67333e-10
1.47194e-09
2.04198e-09
6.34428e-10
-5.87948e-11
-1.50022e-10
-1.58215e-11
4.4147e-10
7.86772e-09
2.3169e-09
-2.8369e-10
-3.28042e-09
-2.96233e-09
-5.30048e-10
5.88096e-11
1.00526e-10
6.91796e-11
7.29172e-11
1.07395e-10
8.61433e-11
1.14958e-11
4.48901e-11
5.09832e-10
2.4179e-09
4.70315e-09
3.77389e-09
-2.71599e-10
-1.03836e-09
-4.71425e-11
-3.22109e-11
5.19236e-12
4.14276e-12
-9.42427e-11
-4.98784e-11
-6.76967e-12
1.13832e-10
2.31652e-10
2.08753e-11
-1.0042e-12
-8.08026e-11
4.19801e-10
2.2399e-09
2.24153e-09
3.94423e-10
-4.0992e-11
-1.02627e-10
-6.43426e-11
5.15794e-12
6.61078e-09
3.97903e-09
-1.07487e-09
-1.6948e-09
-1.55083e-09
-2.28781e-10
4.57016e-11
1.51657e-10
2.19377e-10
2.51989e-10
1.8621e-10
5.29177e-11
1.95771e-11
1.83752e-11
4.43054e-10
1.74927e-09
4.43071e-09
6.0526e-09
2.14008e-09
-4.26296e-10
-8.90664e-10
-2.44946e-12
-5.45961e-12
1.1139e-10
-8.36969e-11
-2.57537e-10
-2.05672e-11
-2.15283e-10
3.81475e-10
1.79107e-10
4.34692e-11
2.53973e-10
1.12497e-09
2.63544e-09
1.44213e-09
9.58883e-11
-2.99389e-11
-4.03101e-11
-5.82433e-11
-1.05794e-10
3.54616e-09
3.38276e-09
-2.04405e-09
-1.89197e-10
-3.07467e-10
-4.27671e-11
5.49025e-11
1.63717e-10
2.29501e-10
8.90947e-11
-5.58418e-10
-1.30712e-09
-7.59104e-10
-1.74773e-11
1.72139e-10
1.25954e-09
2.97003e-09
5.47078e-09
5.48305e-09
3.42078e-09
-2.07073e-09
-2.44688e-10
-1.6639e-12
3.15424e-10
1.92561e-10
-4.81752e-10
-4.14725e-10
-1.263e-10
-1.06994e-09
5.81402e-10
9.56934e-12
1.14623e-09
2.62665e-09
2.53384e-09
6.34302e-10
-2.34328e-11
-1.75881e-11
-1.49973e-11
-1.08753e-11
-1.41521e-10
5.4902e-10
1.0183e-09
-2.818e-09
-1.65671e-10
-2.12247e-12
1.0592e-12
7.60662e-11
1.85742e-10
2.28938e-10
-6.08302e-11
-1.28644e-09
-3.12524e-09
-2.94307e-09
-6.06007e-10
-1.06068e-11
5.98542e-10
1.79839e-09
3.18214e-09
5.58678e-09
6.34521e-09
2.38246e-10
-9.95671e-10
-2.94655e-13
3.02864e-10
3.48637e-10
5.64747e-11
-3.31269e-10
-4.53591e-11
-1.41285e-09
-1.70158e-09
4.17103e-10
9.30401e-10
4.08093e-09
2.51377e-09
2.96566e-10
-1.6323e-11
-2.46032e-11
-1.49572e-11
-3.05089e-12
-2.55398e-10
-1.12019e-09
-1.18652e-09
-2.76446e-09
-6.97332e-10
-2.0621e-11
8.68899e-12
9.1745e-11
1.67132e-10
2.01318e-10
-1.16698e-10
-1.64468e-09
-4.17446e-09
-4.43929e-09
-1.59722e-09
-2.18335e-11
7.86826e-11
8.77016e-10
1.38259e-09
3.00657e-09
5.52623e-09
5.45468e-09
-1.01812e-09
-7.43286e-12
-2.41771e-10
-1.12638e-10
3.01944e-10
1.4829e-10
-3.92003e-11
-2.59548e-10
-3.103e-09
-8.07361e-10
2.01325e-11
2.47428e-09
2.41891e-09
5.58143e-10
8.18146e-11
-2.55107e-11
-2.68302e-11
-2.5072e-11
-4.46993e-10
-1.54949e-09
-1.97915e-09
-1.36142e-09
-1.84715e-11
4.59451e-11
2.05843e-11
5.75859e-11
1.12774e-10
1.58605e-10
-1.24869e-10
-1.56954e-09
-4.43038e-09
-5.17182e-09
-2.0962e-09
-8.06198e-11
-3.11895e-11
3.51174e-10
4.82774e-10
8.35288e-10
2.60865e-09
7.26792e-09
-1.58605e-11
-4.32682e-11
-5.86446e-10
-5.37133e-10
1.55065e-10
1.12261e-10
1.33832e-12
-5.8819e-11
-1.36341e-09
-2.65321e-09
1.71337e-10
3.76283e-10
2.42278e-09
1.43979e-09
3.40932e-10
-6.39841e-11
-5.35728e-11
-2.23309e-11
-4.00364e-10
-1.38366e-09
-1.46539e-09
8.13212e-10
8.42927e-10
1.30507e-11
-3.02315e-12
8.69646e-12
9.60934e-11
1.42003e-10
-8.01813e-11
-1.05159e-09
-3.57702e-09
-5.51522e-09
-2.82523e-09
-1.92842e-10
-4.24213e-11
1.95854e-10
2.70257e-10
1.54515e-10
7.45978e-10
3.45797e-09
5.93392e-10
-4.95729e-11
-2.65581e-10
-2.2313e-10
5.52387e-11
1.7906e-11
5.87123e-12
-1.02749e-10
-9.45676e-10
-2.47252e-09
-4.45705e-10
3.09234e-11
1.70916e-09
1.82103e-09
3.56409e-10
-1.72575e-10
-1.11004e-10
-1.78077e-12
-9.78156e-12
-5.06942e-10
-4.46836e-10
7.20995e-10
2.24109e-10
1.19252e-12
-1.70696e-12
2.47374e-11
1.51673e-10
1.80939e-10
8.21115e-12
-2.58702e-10
-1.36818e-09
-4.15403e-09
-3.89741e-09
-7.23828e-10
-5.57698e-12
1.00527e-10
3.13058e-10
1.79872e-10
3.91841e-10
5.69407e-10
1.52738e-10
-2.44752e-12
-1.25688e-11
-5.54597e-12
2.8892e-12
1.20001e-13
1.47374e-11
-6.09722e-11
-1.07062e-09
-2.77218e-09
-1.15908e-09
3.18088e-10
5.43682e-10
1.17932e-09
1.38417e-10
-3.12141e-10
-2.40977e-10
-1.7716e-12
2.43649e-10
6.51671e-10
2.63982e-10
2.1348e-10
1.03584e-10
2.88793e-11
5.22627e-13
7.32076e-11
2.41511e-10
2.40003e-10
6.77515e-11
-1.89355e-13
-3.9177e-11
-1.19771e-09
-3.62919e-09
-1.9083e-09
-1.02814e-10
9.53536e-12
2.57565e-10
4.36069e-10
3.7364e-10
1.00854e-10
9.26498e-12
4.00542e-12
3.10374e-12
-1.00501e-12
4.03489e-13
9.3418e-14
7.09977e-14
2.92819e-12
-8.27924e-10
-3.18621e-09
-1.80338e-09
4.9377e-10
3.56105e-11
4.37306e-10
-5.1141e-11
-5.17568e-10
-3.83861e-10
2.40564e-11
1.71632e-10
1.52095e-09
1.28186e-09
6.00677e-10
2.63061e-10
8.37018e-12
-8.12565e-11
-4.46196e-10
-1.61281e-10
2.20843e-10
8.67938e-11
1.72633e-11
1.42374e-11
-2.56707e-11
-1.62974e-09
-2.64782e-09
-6.2312e-10
-3.34629e-12
7.26812e-11
3.63455e-10
3.01003e-10
1.18919e-10
2.89281e-11
2.52065e-11
2.9102e-11
3.91133e-11
1.35841e-11
1.0586e-12
4.24927e-12
4.01867e-13
-4.89388e-10
-2.81315e-09
-2.06828e-09
2.55969e-10
1.41581e-11
2.03599e-10
-8.06653e-11
-5.33584e-10
-2.67364e-10
4.63033e-11
2.74794e-11
1.00529e-09
1.67947e-09
5.87378e-10
-1.49601e-11
-1.99569e-10
-1.22686e-09
-8.42959e-10
-4.99706e-11
6.67619e-12
8.20425e-12
1.9045e-11
5.07189e-11
-7.01475e-12
-3.43119e-10
-2.34595e-09
-1.59745e-09
-1.46257e-10
3.26007e-12
1.74977e-10
1.4081e-10
8.28379e-11
9.62987e-12
-5.97156e-12
3.25728e-11
1.00827e-10
5.84431e-11
5.95508e-13
1.04076e-11
-1.24534e-12
-4.21906e-10
-2.50807e-09
-2.34837e-09
-6.96211e-11
6.64587e-12
5.34437e-10
5.32111e-10
-1.7469e-10
-1.41701e-10
2.09216e-12
2.32369e-11
2.24856e-10
2.64896e-10
9.34517e-12
-1.93458e-10
-1.56186e-09
-1.43531e-09
-1.2423e-10
-3.3133e-11
3.55523e-10
5.2787e-10
8.04477e-11
5.75386e-12
8.82728e-14
-2.86781e-11
-1.15232e-09
-2.40621e-09
-8.76512e-10
-1.36567e-11
1.89375e-11
2.69911e-12
4.19462e-12
-1.41924e-11
-3.1493e-11
1.66685e-11
1.30227e-10
7.65135e-11
8.45902e-13
1.37087e-11
8.50804e-13
-2.85471e-10
-1.9356e-09
-1.8372e-09
4.9142e-11
5.27471e-11
1.26269e-09
9.8163e-10
-1.28897e-10
-9.41204e-11
-1.5682e-12
2.86781e-11
1.27086e-11
7.78437e-11
2.63867e-10
-4.81445e-10
-1.14323e-09
-1.95792e-10
-1.77877e-10
-2.44061e-10
1.31406e-10
2.45339e-10
2.48216e-10
9.32136e-11
2.08308e-11
-1.25008e-13
-1.25321e-10
-1.40793e-09
-1.60973e-09
-3.47819e-10
8.56051e-12
-8.8234e-11
-2.06614e-11
-1.92137e-11
-1.32466e-10
-4.16761e-11
4.38941e-11
8.78281e-13
4.1406e-11
2.77128e-11
9.06644e-12
-1.05114e-10
-8.60614e-10
-4.95603e-10
1.76747e-10
5.16179e-11
4.72721e-10
1.55117e-10
-6.80435e-11
-3.12174e-11
-9.13458e-12
-3.8039e-12
9.03846e-11
3.98841e-10
3.03014e-10
-9.69846e-11
-2.71354e-12
-9.06982e-11
2.21237e-11
5.66213e-12
-1.2835e-13
9.70171e-13
1.90393e-10
1.49153e-09
1.47095e-09
3.0423e-10
-2.40713e-11
-1.33464e-10
-8.00687e-10
-7.39782e-10
-2.61391e-10
-4.73476e-10
-2.14896e-10
-1.26841e-11
-1.78482e-11
-5.8504e-12
3.22892e-12
4.47847e-14
4.48647e-13
8.16558e-12
7.94241e-11
-2.93261e-12
-3.65985e-10
-2.17736e-10
2.74839e-11
6.15602e-12
3.1831e-12
5.21982e-12
-2.06337e-11
-4.73878e-11
-3.66144e-11
-2.28136e-11
-4.5648e-12
5.46211e-11
3.69871e-11
3.67576e-13
-1.38904e-13
-3.31771e-11
-1.68053e-12
-7.78271e-11
6.30724e-11
3.52493e-10
1.80906e-11
2.14772e-09
5.00443e-09
2.17683e-09
7.47191e-11
-3.24248e-11
-5.40878e-10
-8.67306e-10
-6.96422e-10
-1.45305e-10
-7.65358e-11
-5.5027e-11
-2.66553e-11
1.98886e-12
2.94687e-12
8.039e-13
1.83602e-11
7.55954e-11
1.63239e-10
8.2723e-11
-2.34947e-10
-3.29003e-10
-1.7103e-10
-4.14711e-11
4.68256e-13
3.71583e-12
3.31691e-11
6.06528e-12
-2.81475e-11
-5.89566e-12
-3.55477e-13
1.82675e-12
9.41399e-12
8.70538e-12
-1.09598e-11
-1.74986e-12
-3.3364e-11
-7.72216e-11
1.47787e-10
4.43893e-10
1.70655e-10
3.15335e-10
2.74166e-09
2.76238e-09
3.492e-10
-1.0209e-11
-4.61423e-10
-7.11824e-10
-3.7797e-10
-2.04153e-11
-3.8918e-11
-2.17731e-12
5.50394e-13
3.26065e-11
3.04412e-11
-3.22667e-13
1.14852e-14
2.29933e-11
9.77388e-11
4.76765e-11
-2.98861e-11
-2.89088e-11
-5.6391e-11
-1.35726e-10
-1.69111e-11
1.27052e-10
5.13821e-11
6.14449e-12
2.21788e-12
-2.71085e-12
-1.11966e-11
1.24945e-12
1.19879e-11
1.69176e-12
9.34157e-12
3.23086e-11
-3.23612e-11
-1.49445e-10
-9.57978e-11
2.31867e-11
1.03325e-11
3.12862e-11
2.98464e-10
5.67329e-10
2.17296e-10
2.42072e-12
-2.29846e-11
-7.23721e-11
-1.51161e-11
-5.72538e-12
-2.31236e-11
4.94126e-13
2.3815e-12
-1.50022e-13
-1.67226e-11
-1.4199e-11
-7.80068e-12
-1.57403e-11
4.63243e-11
-3.67698e-11
-2.07311e-11
-2.7534e-12
-3.60703e-12
-8.74251e-11
8.18241e-11
3.00256e-10
1.29834e-10
1.88271e-11
4.95233e-12
1.8879e-12
2.59292e-13
4.23057e-12
7.72824e-11
2.47743e-10
2.66326e-10
4.67281e-11
-1.58128e-10
-2.1244e-10
-1.07432e-10
-7.47269e-12
2.53724e-12
2.6182e-11
1.85365e-11
1.11801e-12
6.30852e-12
4.70143e-12
-5.05599e-11
-7.30171e-11
-1.68711e-11
8.56565e-13
5.18114e-13
3.22527e-13
-1.65868e-13
-1.09414e-11
-6.10644e-11
-1.5019e-10
-1.87062e-10
7.50478e-13
4.64183e-10
3.39455e-10
-1.71176e-10
-1.26062e-10
-1.09367e-11
-4.56889e-14
-4.15672e-15
2.49184e-12
2.93499e-11
8.55234e-11
1.02546e-10
6.90862e-11
4.06028e-11
2.47118e-11
5.54883e-12
1.69674e-12
4.62226e-12
-7.72937e-14
-1.88368e-11
-8.48929e-11
-4.57657e-11
-1.56938e-12
1.92693e-11
1.27456e-10
3.83673e-11
1.46507e-11
4.40265e-11
-7.59597e-11
-1.93186e-10
-1.51151e-10
-4.20212e-11
-1.33289e-10
1.04339e-10
9.10279e-11
1.40135e-12
1.82658e-12
-3.57237e-10
-7.52028e-10
-4.88354e-10
-7.65356e-11
7.42811e-11
9.48228e-11
5.11495e-11
-7.23981e-12
-2.58874e-11
-2.96352e-11
-3.84094e-11
-3.80528e-11
-1.86228e-11
-1.7616e-12
4.9982e-13
2.54205e-11
1.12622e-10
1.80363e-10
1.1532e-10
2.21805e-11
3.74921e-13
-1.41862e-14
-1.88436e-12
-1.81763e-12
-1.32864e-11
-9.50851e-11
-6.50918e-11
1.19576e-10
7.98732e-11
1.31508e-11
1.76576e-10
1.20882e-10
-2.23292e-10
-4.71156e-10
-4.10933e-10
-5.43216e-12
2.92427e-13
1.75153e-12
1.17784e-11
1.34122e-11
-1.17248e-11
-3.10915e-11
-3.04732e-11
-2.55045e-11
-2.91909e-11
-5.9476e-11
-1.3827e-10
-2.71936e-10
-4.46091e-10
-6.57607e-10
-9.05936e-10
-1.14869e-09
-1.2029e-09
-7.70383e-10
-2.41853e-11
1.20116e-10
3.36823e-11
1.82638e-11
-4.2448e-11
-7.11292e-11
-5.08422e-11
-4.5922e-11
-7.0487e-11
-1.12764e-10
-1.34336e-10
-1.38492e-10
-1.75501e-10
-1.89347e-10
-8.38229e-11
-3.36544e-11
-1.05271e-10
-2.58902e-11
1.6161e-12
1.38132e-14
-4.91373e-12
1.29612e-11
1.29241e-11
3.25237e-11
2.0944e-11
-2.00191e-10
-4.00129e-10
-3.4319e-10
-1.59385e-10
-3.6017e-11
-4.47424e-11
-2.89435e-10
-9.38472e-10
-2.00504e-09
-3.29152e-09
-4.73029e-09
-6.37531e-09
-8.08606e-09
-8.85047e-09
-6.1803e-09
6.56879e-10
3.13774e-09
4.77309e-10
2.13878e-11
-4.65719e-10
-1.64773e-09
-1.9278e-09
-1.52437e-09
-1.19895e-09
-1.11287e-09
-1.08263e-09
-1.0071e-09
-8.34002e-10
-7.28982e-10
-7.86244e-10
-2.94606e-10
-1.17511e-10
3.26865e-11
1.95495e-10
3.22962e-12
1.14833e-11
1.77131e-11
1.77363e-11
3.19955e-11
-1.5788e-11
-2.95201e-10
-4.86909e-10
-3.26406e-10
-2.51101e-11
2.07076e-10
2.56439e-10
7.43231e-11
-3.17876e-10
-9.09952e-10
-1.49736e-09
-1.95833e-09
-2.4011e-09
-2.90632e-09
-3.32552e-09
-2.64398e-09
4.43475e-10
2.33017e-09
3.0762e-10
5.46389e-11
-3.97523e-11
-1.65254e-09
-2.79115e-09
-1.77764e-09
-7.16578e-10
-1.36769e-10
3.3835e-10
7.08785e-10
7.78992e-10
6.37028e-10
2.61316e-10
-3.54871e-11
-4.58692e-12
1.37681e-11
5.39903e-10
1.85665e-10
1.15963e-12
5.4857e-13
4.00926e-12
5.88745e-12
-7.5123e-12
-1.50999e-10
-2.63038e-10
-1.51616e-10
4.06306e-11
1.65836e-10
1.69788e-10
8.67516e-11
-2.43636e-11
-2.06642e-10
-3.78666e-10
-4.30655e-10
-4.40087e-10
-4.171e-10
-4.55422e-10
-5.46425e-10
-4.48783e-11
3.41348e-10
3.28321e-10
2.0402e-09
-2.86862e-10
-2.67426e-10
-1.42914e-09
-5.90586e-10
-4.5368e-11
6.85546e-11
2.644e-10
6.17158e-10
7.44606e-10
4.94552e-10
1.3198e-10
6.55278e-12
5.09487e-11
1.99729e-10
1.3403e-09
1.27321e-09
1.26196e-10
5.10242e-11
7.69125e-14
3.54618e-14
-1.20747e-12
-8.07295e-11
-1.82387e-10
-1.14795e-10
5.8836e-11
1.77159e-10
1.48681e-10
6.52131e-11
1.55091e-11
-5.52584e-11
-1.50979e-10
-1.9424e-10
-1.72587e-10
-6.81609e-11
-3.26174e-11
-1.74492e-10
-2.80941e-10
7.89863e-11
7.7215e-10
6.39234e-09
1.60977e-10
-4.11224e-11
-1.19987e-09
-4.83205e-10
-8.04607e-12
3.34586e-13
1.94682e-11
2.14973e-10
4.07251e-10
2.76187e-10
3.29416e-11
1.2494e-10
5.63524e-10
8.49447e-10
2.52365e-09
3.65405e-09
1.20246e-09
6.39239e-10
1.76282e-11
3.27116e-13
1.21574e-12
-7.75419e-11
-2.07886e-10
-1.6106e-10
7.13586e-11
3.70426e-10
4.05835e-10
1.99733e-10
8.21721e-11
3.73545e-11
-1.03522e-11
-6.65692e-11
-7.00154e-11
-1.11569e-12
-2.13555e-11
-5.0574e-11
-4.86482e-10
-1.10484e-10
1.52647e-10
6.91201e-09
2.7047e-09
-4.98223e-10
-1.41772e-09
-1.06723e-09
-5.50781e-11
4.6441e-12
2.18619e-11
1.93511e-10
4.19211e-10
3.29875e-10
8.98549e-11
2.13694e-11
5.06038e-10
1.30131e-09
2.90769e-09
5.56551e-09
4.11984e-09
3.13178e-09
3.05167e-10
1.1995e-12
1.24301e-11
-9.83866e-11
-2.68932e-10
-2.38854e-10
-8.68617e-12
4.33836e-10
8.1748e-10
5.99697e-10
2.8824e-10
1.72008e-10
9.87935e-11
1.16089e-11
-6.16756e-12
-4.80467e-11
-1.0111e-10
-2.09347e-11
-4.4414e-10
-2.36792e-10
5.77494e-11
5.56065e-09
4.38664e-09
-1.07281e-09
-8.84393e-10
-1.16665e-09
-1.37978e-10
3.82253e-11
1.27001e-10
3.75532e-10
5.24698e-10
2.50665e-10
3.33805e-11
7.73152e-12
1.45824e-10
1.05029e-09
2.74638e-09
5.95106e-09
7.61714e-09
7.43133e-09
2.02742e-09
1.8846e-11
5.0311e-11
-1.1958e-10
-3.69468e-10
-3.65187e-10
-1.49741e-10
1.23299e-10
5.85233e-10
9.86619e-10
9.34989e-10
6.56939e-10
3.13891e-10
4.80473e-11
-1.08269e-12
-1.44344e-10
-1.31536e-10
-3.93241e-11
-2.95393e-10
-8.88047e-11
-7.39313e-12
4.09579e-09
3.32428e-09
-1.07318e-09
-2.73462e-10
-5.70124e-10
-1.01989e-10
6.45467e-11
2.54198e-10
4.90666e-10
1.95656e-10
-9.81722e-10
-1.43517e-09
-3.7115e-10
3.32087e-13
3.96604e-10
1.95252e-09
5.08891e-09
9.40282e-09
1.0584e-08
6.35044e-09
4.52651e-10
7.23098e-11
-1.24292e-10
-5.13773e-10
-4.9412e-10
-2.7584e-10
-7.25681e-11
6.59891e-11
5.63026e-10
1.6922e-09
2.2138e-09
1.22707e-09
1.56062e-10
1.29713e-11
-1.71961e-10
-1.08414e-10
-5.745e-11
-1.26331e-10
-5.79232e-12
-5.0831e-10
1.81067e-09
1.47156e-09
-8.052e-10
-2.36787e-11
-1.47717e-10
-2.46783e-11
9.39806e-11
3.28444e-10
5.44378e-10
-1.69964e-10
-2.49312e-09
-4.28025e-09
-2.44063e-09
-1.6278e-10