/*--------------------------------*- C++ -*----------------------------------*\
| =========                 |                                                 |
| \\      /  F ield         | OpenFOAM: The Open Source CFD Toolbox           |
|  \\    /   O peration     | Version:  5.0                                   |
|   \\  /    A nd           | Web:      www.OpenFOAM.org                      |
|    \\/     M anipulation  |                                                 |
\*---------------------------------------------------------------------------*/
FoamFile
{
    version     2.0;
    format      ascii;
    class       volScalarField;
    location    "50.4676134421789371";
    object      UVW;
}
// * * * * * * * * * * * * * * * * * * * * * * * * * * * * * * * * * * * * * //

dimensions      [0 3 -3 0 0 0 0];

internalField   nonuniform List<scalar> 
60000
(
-5.01687e-13
1.70753e-12
2.05387e-12
1.83416e-13
5.56628e-14
6.94994e-15
-8.32904e-14
-9.05224e-14
1.27529e-15
1.37205e-13
-5.62962e-13
-6.03984e-13
-1.62847e-13
-8.25018e-14
8.44136e-14
5.71527e-13
1.4238e-13
-1.09308e-12
-5.9562e-12
-1.15374e-11
-1.1234e-11
-1.09451e-12
-2.93755e-12
-4.22719e-12
1.27352e-11
2.434e-11
1.8891e-11
5.88057e-12
-2.14777e-12
-1.2407e-12
1.4757e-12
7.3823e-12
1.34521e-11
1.09954e-11
2.55008e-12
6.64643e-14
-2.27269e-14
-5.80686e-13
-1.70129e-12
-1.6542e-12
-6.028e-11
-4.68754e-12
3.44871e-12
1.69148e-12
1.19054e-11
1.22097e-12
5.23297e-13
8.92013e-13
3.67514e-13
-2.64715e-11
-8.34181e-11
-5.898e-11
-7.33947e-12
-2.3952e-13
-5.14555e-12
-1.7578e-11
-5.50929e-11
-9.48674e-11
-6.05919e-11
5.58707e-11
5.52091e-11
-1.07608e-10
-9.79532e-11
3.95813e-10
8.46454e-10
7.40041e-10
3.62261e-10
1.20596e-10
-3.10142e-11
-1.8718e-11
6.84572e-12
8.37053e-12
9.02575e-11
1.88833e-10
1.59522e-10
1.35068e-11
1.15873e-12
2.97822e-12
-3.6447e-11
-9.12286e-11
-1.8332e-10
-7.56423e-11
-2.83294e-12
6.22272e-13
1.35619e-11
1.35781e-11
-1.21557e-13
2.73498e-12
4.10224e-12
-2.79349e-11
-1.69593e-10
-1.91618e-10
-4.56447e-11
-1.72909e-14
-1.37748e-11
-8.577e-11
-2.21338e-10
-2.59436e-10
-8.98111e-11
1.24765e-10
4.47489e-11
-5.14288e-10
-3.86527e-10
1.16881e-09
1.84246e-09
9.96718e-10
5.43021e-11
-5.4968e-11
7.52489e-12
4.71977e-12
1.07726e-11
-1.07204e-11
-1.27098e-11
9.24161e-11
1.89261e-10
7.08445e-11
-5.45664e-13
1.25487e-12
3.27435e-11
-8.74529e-11
-2.088e-10
-1.05783e-10
-2.38731e-14
2.00179e-12
2.56408e-11
4.8669e-11
2.439e-11
-4.21864e-12
1.57998e-13
3.25511e-12
-1.5631e-10
-2.39957e-10
-4.21683e-11
1.76679e-13
8.93826e-12
-7.79402e-11
-2.70699e-10
-2.11538e-10
-5.54157e-12
-8.68644e-11
-1.15276e-11
-3.68851e-10
-4.692e-10
1.67844e-09
2.01917e-09
6.04692e-10
-2.50339e-10
-6.77002e-11
8.7309e-11
7.76662e-12
-2.83212e-11
-4.66543e-12
4.9063e-12
7.30224e-12
5.82655e-11
2.45148e-12
-7.32839e-12
7.26506e-12
-5.39894e-12
-1.01714e-12
-1.77284e-10
-2.01333e-10
2.77135e-11
4.44176e-13
4.51055e-11
8.11269e-11
7.69656e-11
-6.92236e-12
7.75032e-14
3.76974e-12
-1.11937e-10
-4.39613e-10
-9.35853e-11
1.39133e-11
4.12603e-11
-5.33334e-11
-4.30595e-10
-2.50833e-10
6.91298e-11
-5.6863e-10
-3.93063e-10
2.71883e-10
-7.01014e-10
2.70313e-09
2.95427e-09
6.7451e-10
-2.63398e-10
-4.44639e-11
1.27239e-10
-3.79922e-11
-1.24143e-10
-5.59962e-11
9.18423e-12
-4.25829e-12
-7.34198e-11
-1.33705e-10
-8.19809e-11
9.05072e-11
-3.33623e-11
8.06376e-12
-2.14956e-11
-3.71159e-10
-7.68913e-11
6.84703e-12
2.23459e-11
6.58334e-11
8.47726e-11
3.63212e-11
9.60387e-12
-1.28427e-11
-8.2888e-12
-5.62827e-10
-4.81031e-10
2.77568e-11
1.29025e-11
-2.20902e-10
-1.09932e-09
-5.84918e-10
4.81076e-11
-7.8984e-10
-1.5968e-09
1.25633e-09
-1.01687e-09
4.14131e-09
4.3732e-09
7.9497e-10
-2.22143e-10
-8.07864e-11
1.65521e-10
1.64474e-10
-4.94425e-12
-5.74022e-11
-2.30439e-11
-1.11448e-11
-8.7827e-11
-2.29494e-10
-1.61312e-10
1.15256e-10
1.39581e-10
-2.2685e-11
-4.6736e-12
-1.31888e-10
-2.31112e-10
-1.31696e-11
-1.9848e-12
1.75638e-11
3.75148e-11
5.65001e-11
6.2504e-11
2.49337e-11
4.7695e-12
-1.67369e-12
-6.16154e-10
-1.39316e-10
8.26531e-12
-8.71231e-10
-2.68484e-09
-1.13384e-09
-1.32921e-11
-4.8331e-10
-2.55375e-09
2.06507e-09
-5.72694e-10
4.0911e-09
3.97001e-09
6.37781e-10
-1.54405e-10
-9.22311e-11
1.19747e-10
2.15793e-10
1.5441e-10
4.02673e-11
-5.66332e-12
-2.23111e-11
-9.02822e-11
-2.44052e-10
-2.05113e-10
4.99422e-11
2.24775e-10
1.22478e-10
6.66909e-11
3.55247e-12
-3.5242e-11
-1.9117e-11
5.20056e-12
3.07039e-13
8.80475e-13
8.05145e-12
5.91104e-11
6.63484e-11
6.3777e-12
8.12724e-10
2.9019e-10
-2.74715e-10
1.26388e-10
-2.31475e-09
-4.67839e-09
-1.64611e-09
-2.51039e-11
3.68188e-11
-1.44512e-09
2.24184e-09
1.11386e-09
1.88097e-09
2.18588e-09
5.74091e-10
-3.05954e-11
-7.27529e-11
8.68002e-11
1.68645e-10
1.21974e-10
2.28532e-12
-5.95966e-11
-4.54737e-12
-2.70778e-11
-2.2196e-10
-2.15664e-10
1.75939e-11
1.67885e-10
2.31698e-10
2.21429e-10
1.29838e-11
5.03726e-11
1.52794e-11
6.79551e-12
8.69825e-12
-5.68824e-13
3.95791e-12
1.07059e-12
5.64285e-12
4.54818e-11
1.30985e-09
1.43989e-09
-1.13469e-10
3.33858e-10
-3.71443e-09
-5.25724e-09
-1.58913e-09
-1.3822e-11
1.63394e-10
6.45907e-10
2.5299e-09
2.77463e-09
-6.44019e-10
3.54037e-10
6.33563e-10
2.40801e-10
-2.10641e-11
7.68184e-11
1.32836e-10
4.84044e-11
-7.61019e-11
-2.20856e-10
-2.31548e-10
-7.85866e-13
-1.19924e-10
-2.71125e-10
-4.88531e-11
1.27362e-10
2.1199e-10
2.56371e-10
1.47272e-10
-2.42149e-11
-6.04635e-11
3.28791e-12
1.89637e-11
-9.65858e-12
1.22687e-11
8.14648e-12
-1.09484e-11
8.804e-11
1.6478e-09
1.59359e-09
3.33503e-11
1.87913e-10
-4.12205e-09
-4.07114e-09
-1.06678e-09
-1.26142e-11
5.50147e-12
1.0799e-09
2.51611e-09
2.62692e-09
-2.09767e-09
-1.05465e-09
7.78687e-10
5.57153e-10
1.44962e-11
7.59992e-11
1.03747e-10
-6.66279e-12
-7.2013e-11
-2.01567e-10
-4.05029e-10
-1.74324e-10
-9.92286e-12
-2.46213e-10
-2.00344e-10
-2.8863e-12
1.36347e-10
8.36016e-11
1.9299e-10
-4.50941e-11
-1.73262e-10
3.72918e-11
3.9048e-11
-1.07082e-11
1.27034e-11
1.27793e-12
1.68288e-11
5.42141e-11
1.7842e-09
1.83998e-09
-3.51648e-10
-2.53479e-10
-3.75208e-09
-3.12183e-09
-6.89765e-10
-8.52395e-12
-1.07345e-11
2.49092e-10
1.11335e-09
1.14669e-09
-1.42926e-09
-1.63101e-09
6.24756e-10
5.8728e-10
7.51132e-12
7.14227e-11
7.52316e-11
-1.72585e-11
4.98955e-11
-5.27712e-11
-4.37662e-10
-2.77292e-10
4.09697e-12
-1.5934e-10
-2.46012e-10
-1.51235e-10
-4.44908e-11
-8.03333e-11
2.19003e-11
-5.77828e-12
-1.72913e-10
6.94621e-12
-3.06222e-11
4.57445e-12
-5.6434e-13
1.60202e-12
2.42628e-11
2.92341e-12
1.32467e-09
2.41015e-09
-3.29372e-10
-1.63174e-10
-2.94026e-09
-2.3781e-09
-1.86801e-10
2.37134e-11
1.93077e-12
-5.79608e-11
-3.7109e-10
-2.55594e-10
-2.75724e-10
-1.36854e-09
1.24047e-10
2.95239e-10
-4.93061e-12
6.13767e-11
4.73024e-11
1.42127e-11
3.2596e-10
2.82221e-10
-4.89157e-10
-4.39045e-10
1.77816e-11
-1.12014e-10
-1.92336e-10
-1.47069e-10
-1.21625e-10
-5.49626e-11
-2.84299e-11
9.92049e-12
-5.95976e-11
-1.53254e-10
-1.81184e-10
-2.19072e-11
5.49612e-12
-6.63613e-13
3.37167e-11
9.26034e-12
7.91308e-10
2.83352e-09
1.7029e-10
9.642e-11
-1.51291e-09
-1.03907e-09
6.05394e-10
1.89573e-10
7.28907e-12
-1.61807e-10
-9.77209e-10
-7.65023e-10
-2.21709e-11
-9.82506e-10
-6.26634e-10
-3.26435e-11
-1.24942e-12
4.97268e-11
1.10487e-11
-1.1834e-11
4.83078e-10
8.29051e-10
-4.77216e-10
-9.05671e-10
-5.60462e-11
-3.92939e-11
-1.16967e-10
-8.37276e-11
-1.25388e-10
-1.17223e-10
6.77452e-11
-7.8099e-12
-2.12415e-12
-1.28324e-10
-2.25169e-10
-1.48285e-10
-1.24471e-11
7.06058e-12
6.4779e-12
9.31002e-11
2.17927e-10
2.87491e-09
1.12445e-09
3.73053e-11
-2.20805e-10
1.00533e-10
1.55164e-09
6.95464e-10
-1.35147e-10
-5.77027e-11
-1.44163e-09
-7.161e-10
-5.773e-12
-8.41889e-10
-9.31098e-10
-1.0821e-10
1.80767e-13
2.79867e-11
-3.87546e-11
-1.1794e-10
1.69166e-10
8.56361e-10
-2.81049e-10
-1.75572e-09
-4.99889e-10
3.57965e-11
-4.63769e-11
-1.0048e-11
-1.0937e-10
-1.18694e-10
-1.70529e-11
7.88423e-13
3.06146e-11
1.15795e-11
-1.04386e-10
-1.61741e-10
-9.29322e-11
-7.85928e-12
-2.23639e-11
4.4048e-11
-3.94901e-11
1.70516e-09
2.01213e-09
-5.3857e-11
3.6299e-11
6.80324e-10
2.33354e-09
1.02264e-09
-1.51083e-10
1.8646e-10
-1.96911e-09
-1.7505e-09
-3.32819e-11
-5.25425e-10
-5.42205e-10
-4.46016e-11
6.1643e-12
-1.43217e-11
-6.25969e-11
-1.22641e-10
-1.50458e-10
2.51213e-10
-1.6386e-10
-2.81822e-09
-1.75757e-09
-1.0673e-11
-3.65379e-12
5.79845e-11
-3.07118e-11
-8.66271e-11
-9.72645e-11
-3.69919e-11
3.60798e-11
6.79051e-11
3.36456e-11
-2.00611e-11
-1.69383e-11
-7.31131e-12
2.53966e-12
3.57757e-12
-2.27088e-10
4.00527e-10
2.00276e-09
4.41475e-10
-8.38636e-11
7.62521e-10
1.25298e-09
4.36155e-10
-1.25644e-11
4.73801e-10
-2.39662e-10
-1.38092e-09
-1.31436e-10
-2.75983e-10
-3.74024e-10
-6.24358e-11
-7.53723e-12
1.26131e-11
4.98763e-11
6.36128e-11
-7.84351e-11
-6.47455e-11
-1.89074e-10
-3.13666e-09
-4.21081e-09
-8.42905e-10
7.0327e-12
6.01523e-11
4.22339e-11
-2.98121e-11
-7.89114e-11
-1.12595e-11
-1.80218e-11
3.7599e-11
1.63182e-10
4.69744e-11
-1.27736e-13
-2.24051e-12
2.52787e-14
-1.32936e-12
-2.90007e-10
-1.07748e-10
1.41829e-09
3.60982e-10
1.071e-11
-7.64716e-12
1.31126e-10
1.61113e-10
3.99478e-12
1.66257e-10
5.84574e-10
3.97188e-10
2.07263e-11
1.74902e-10
3.69971e-10
-1.98885e-10
-1.27727e-10
6.46999e-11
2.2508e-10
3.75309e-10
1.17971e-10
-4.27735e-11
-6.57241e-11
-2.1179e-09
-5.45637e-09
-3.30798e-09
-2.99031e-10
-1.19689e-12
3.19136e-11
3.79743e-12
-2.33218e-11
-1.73562e-14
-4.54101e-11
-2.2872e-12
1.89146e-10
3.64574e-11
3.34995e-11
2.2391e-11
-2.7145e-12
-2.09799e-11
-2.18037e-10
-1.69647e-10
4.73612e-10
1.57186e-11
-4.1465e-11
-3.65598e-10
2.61188e-10
1.77501e-10
-4.04288e-11
2.33416e-11
4.45299e-10
7.23822e-10
-9.02199e-11
3.66504e-10
2.70987e-10
-1.87434e-10
-1.46793e-11
5.75663e-11
2.41433e-10
3.25484e-10
4.21599e-10
9.57029e-11
-1.02833e-11
-4.49859e-10
-3.01103e-09
-4.18818e-09
-1.56172e-09
-5.55372e-11
-1.12672e-11
-4.49195e-13
8.14713e-12
1.83117e-11
-9.73396e-11
-9.50188e-11
1.6719e-10
-1.54303e-10
1.94704e-10
4.863e-10
4.11923e-11
4.37247e-11
1.29622e-11
-1.40495e-10
-1.23769e-10
2.44991e-11
-1.42517e-10
2.29032e-11
5.75453e-10
2.49727e-10
-5.28968e-11
6.29827e-12
4.34646e-11
1.6904e-10
-7.2843e-11
1.31372e-11
5.42432e-11
3.73193e-11
-6.47849e-12
3.37456e-11
3.02655e-10
-3.06759e-10
4.30447e-11
3.42652e-10
-9.89481e-10
-1.72048e-10
-3.47305e-10
-1.74455e-09
-1.715e-09
-5.16965e-10
-3.33053e-11
-1.74994e-10
3.15304e-11
1.89011e-10
-3.36732e-10
-1.83428e-10
1.23174e-10
-1.80525e-10
3.21071e-11
3.19083e-10
-8.26756e-12
2.46972e-10
5.55334e-10
1.17752e-10
5.69937e-12
2.03896e-11
-5.81164e-11
2.87282e-11
2.14636e-10
1.68902e-10
5.91961e-12
1.39007e-11
2.60791e-11
-1.55416e-11
6.35918e-12
4.99857e-11
-1.35805e-11
-3.7116e-11
1.32854e-10
4.74974e-10
1.88835e-10
-9.15303e-10
-8.3525e-10
1.0576e-10
-1.28161e-09
-1.12061e-09
7.06338e-11
-1.41386e-10
-4.4323e-10
-3.72748e-10
-2.27229e-10
-2.68607e-11
-1.467e-11
5.31062e-11
-1.68833e-11
-2.45445e-11
5.25735e-11
1.67962e-10
3.8119e-12
-7.25663e-10
-7.22289e-10
9.74954e-11
5.72525e-10
1.86804e-10
-6.92956e-11
-1.32262e-11
2.21226e-11
-1.08678e-11
-7.97435e-11
-1.02517e-10
-3.99671e-11
1.40124e-13
1.96223e-12
2.44949e-11
7.44466e-12
6.35947e-13
-1.5504e-11
-2.63282e-11
2.61484e-11
1.12515e-10
5.9995e-11
-3.6979e-10
-6.09875e-10
2.03354e-10
-3.19171e-10
-1.00106e-09
-1.34032e-10
2.51984e-11
-1.33917e-11
1.91678e-11
1.02836e-11
-5.96368e-11
1.09557e-10
7.09596e-11
-1.71999e-12
2.8705e-11
8.61294e-12
7.95348e-13
-1.98945e-11
-4.64998e-10
-5.84209e-10
-2.81376e-11
-9.04421e-11
-2.31821e-11
7.86908e-11
-9.04895e-11
-5.50837e-11
2.30638e-11
4.87602e-11
-7.39016e-11
-5.86559e-11
4.2066e-12
-4.69548e-11
-1.19336e-10
-9.53159e-11
3.01639e-11
4.90116e-11
-7.1849e-13
7.01342e-11
1.82212e-10
1.98092e-10
3.77678e-11
-1.71651e-10
1.14961e-10
1.11115e-10
-5.62192e-10
-3.09499e-10
8.93043e-13
-3.53382e-11
-1.68369e-11
-1.04593e-10
-7.36356e-12
2.1884e-12
-9.21779e-12
3.89562e-12
-3.60645e-11
-1.19784e-10
-1.54469e-10
-6.27542e-12
-1.81122e-10
-2.89002e-10
2.20687e-11
-2.20069e-10
-1.77615e-10
-1.14024e-11
8.17353e-11
2.62893e-11
-2.05091e-10
-5.12706e-11
6.89591e-11
3.66391e-11
1.04689e-11
-7.97314e-12
-8.18285e-12
-8.91387e-12
-1.43819e-10
-2.60787e-10
-3.14255e-12
4.49535e-10
5.55518e-10
3.10438e-10
9.44917e-11
-2.7927e-12
2.40384e-11
9.61462e-11
8.2078e-11
4.09503e-11
-8.40984e-12
1.46475e-11
8.88007e-11
4.91551e-11
3.01103e-13
5.05698e-12
6.28104e-13
-3.68886e-15
-3.03806e-11
-3.0764e-10
-4.66537e-10
6.57709e-11
-2.53673e-10
-1.08072e-09
-4.03851e-10
1.61048e-10
4.38331e-11
-4.43799e-12
4.97899e-11
2.08672e-11
-1.30464e-10
-7.94136e-11
6.23832e-12
-2.12837e-11
-9.47465e-11
-1.86572e-10
-2.70687e-10
-2.90677e-10
-2.12733e-10
-6.96243e-11
9.31505e-11
2.41781e-10
2.54905e-10
9.8694e-11
1.29005e-13
1.96557e-12
-8.49676e-11
-1.63069e-10
3.88213e-11
8.36275e-11
-8.51963e-13
6.03486e-11
6.90098e-11
1.37805e-11
-4.7865e-12
7.95749e-11
1.48546e-11
-7.25296e-11
4.19758e-11
-2.08402e-10
-4.83358e-10
1.49164e-10
3.04225e-10
-4.28271e-10
-6.11412e-10
-2.80451e-10
-1.54962e-11
4.42452e-11
9.54977e-11
1.40364e-10
8.89429e-11
1.98949e-11
-1.0707e-12
-6.84891e-12
-1.08525e-10
-3.63927e-10
-5.72301e-10
-4.63981e-10
-1.87633e-10
-5.42626e-11
2.87451e-12
7.5767e-11
1.89651e-11
-1.31147e-10
9.01817e-11
2.97638e-10
-1.20954e-10
-2.09204e-10
8.64915e-11
-3.24349e-11
-9.74692e-11
1.72088e-10
2.16584e-10
2.67379e-11
1.98694e-14
-1.69739e-13
-3.40476e-14
2.48585e-13
3.44072e-13
1.55446e-13
-3.06983e-13
-1.61377e-13
9.20967e-13
1.78011e-12
1.66906e-12
1.29519e-12
1.56274e-12
8.27414e-13
-7.13016e-13
-1.00846e-12
-3.87834e-13
-1.34114e-13
4.35946e-13
-8.85981e-13
-5.48688e-12
-4.19789e-12
1.31373e-13
-1.15687e-11
-2.2543e-11
-2.43152e-11
-2.05475e-11
-1.73071e-11
-9.88389e-12
-2.38017e-12
2.1597e-13
-2.25839e-12
-4.07379e-12
-1.15837e-12
-1.07186e-12
3.3593e-12
2.26011e-12
1.03185e-13
-5.30499e-15
-5.3381e-15
-4.80612e-12
-2.74972e-12
-8.63389e-13
-1.98411e-14
-1.30433e-12
-7.92491e-12
-1.53438e-11
-7.56308e-12
3.68103e-12
7.00121e-12
9.69121e-12
3.61332e-11
7.05389e-11
8.63962e-11
9.5848e-11
1.50962e-10
2.59126e-10
2.0505e-10
-1.08179e-10
-1.15454e-10
8.49762e-11
3.81873e-11
-4.73037e-12
-6.73891e-11
3.06447e-11
1.18188e-10
-1.63122e-11
-1.12306e-10
-3.85296e-11
3.12403e-11
-5.85567e-11
-2.16453e-10
-2.13956e-10
-3.36832e-11
3.19006e-11
7.89942e-13
4.96945e-11
7.44532e-12
1.20152e-12
-2.18893e-12
-3.02424e-11
-1.45223e-11
-3.05128e-12
2.20013e-12
1.83419e-11
1.99879e-11
-2.33871e-11
-2.07963e-11
2.60155e-12
-1.48033e-11
-4.22838e-11
1.0831e-11
8.7419e-11
8.25731e-11
3.27582e-12
-2.04423e-11
2.17164e-10
4.37609e-10
8.83609e-11
-1.25174e-10
2.91196e-10
1.0704e-10
-3.28087e-11
-4.86962e-11
5.59749e-10
6.79392e-10
1.98534e-10
-1.57772e-11
-5.16348e-12
-1.47754e-11
-1.41237e-10
-3.19447e-10
-3.22597e-10
-1.11856e-10
7.56492e-11
1.86369e-11
-5.3419e-12
1.36128e-11
7.66631e-12
-4.86755e-12
-5.13698e-11
-2.70642e-11
-2.12615e-12
7.31635e-13
1.62032e-11
2.57561e-11
-1.21584e-11
-1.46293e-11
8.06005e-12
-7.40431e-13
-3.14026e-11
-1.93499e-11
5.45512e-11
-4.38084e-12
-2.39702e-10
-4.25557e-10
-1.75239e-10
2.10748e-10
1.55121e-10
2.26685e-12
-2.54249e-10
-1.11022e-09
2.87581e-11
-4.81326e-11
8.98726e-10
8.33997e-10
1.23537e-10
5.27865e-12
1.96592e-11
-1.51881e-11
-9.27736e-11
-1.96731e-10
-1.72797e-10
-2.2378e-11
6.69002e-11
-7.54911e-11
-1.0105e-10
2.05695e-11
-5.19627e-14
2.42813e-11
7.82509e-12
-5.62823e-11
-2.99904e-12
-5.08364e-13
1.30262e-11
3.10865e-11
2.09942e-12
-3.26561e-12
-1.8932e-11
-3.32283e-11
1.47774e-11
-3.59966e-11
4.42953e-11
-3.53296e-11
-5.17289e-10
-9.14763e-10
-4.70394e-10
1.25587e-10
1.87738e-10
-1.3089e-12
-8.43862e-10
-4.1072e-09
-4.03245e-10
7.00997e-12
1.51769e-09
1.45697e-09
1.80076e-10
1.03964e-11
1.99806e-11
1.21565e-13
-7.06617e-12
-6.83018e-11
-6.67287e-11
2.54689e-12
-2.75444e-11
-3.59101e-10
-4.31073e-10
-2.92686e-11
6.986e-11
2.4007e-11
2.0296e-10
-8.29253e-11
-3.03317e-11
-1.16033e-12
1.35435e-11
6.67507e-11
2.34044e-11
4.42727e-12
-5.33087e-11
-1.54641e-10
-8.69179e-12
-3.83155e-11
1.09498e-11
-7.27464e-11
-1.03025e-09
-1.73242e-09
-8.01555e-10
8.06999e-11
2.88767e-10
6.44228e-12
-3.97205e-10
-6.50126e-09
-2.0781e-09
2.63989e-10
2.23026e-09
2.55808e-09
3.78378e-10
1.45613e-12
5.9738e-11
2.29203e-11
-4.20618e-11
-8.6646e-11
-4.76142e-11
6.72056e-12
-6.65178e-11
-4.5209e-10
-8.35983e-10
-2.6082e-10
3.69041e-10
-1.23223e-11
1.56954e-10
2.58565e-10
-1.0265e-10
-1.46935e-13
-1.19271e-11
1.0548e-10
9.10601e-11
-9.7203e-12
-3.34598e-11
-3.60244e-10
-1.39545e-10
6.10707e-13
-2.00629e-11
-1.64754e-10
-1.58824e-09
-2.2262e-09
-7.07545e-10
1.16095e-10
2.9631e-10
4.4226e-11
9.68745e-11
-6.55265e-09
-4.02836e-09
7.83934e-10
1.95056e-09
2.55449e-09
3.737e-10
-1.10684e-11
4.91113e-11
4.01474e-11
-3.24146e-11
-4.14152e-11
-1.70671e-12
1.11729e-11
-3.14014e-11
-4.50399e-10
-1.03697e-09
-7.4935e-10
5.44195e-10
4.26429e-10
-8.18429e-12
8.20793e-10
8.90234e-12
-2.09658e-12
-9.75707e-11
4.94326e-11
2.05694e-10
3.29499e-11
7.4706e-11
-2.37134e-10
-5.27284e-10
1.60368e-10
1.26506e-10
-3.80126e-10
-1.97646e-09
-1.81396e-09
-2.90032e-10
1.8021e-10
2.16799e-10
5.87778e-11
3.17016e-10
-4.16348e-09
-4.15201e-09
1.42875e-09
5.81422e-10
1.30088e-09
1.76192e-10
-4.29852e-11
1.60185e-11
1.17764e-11
-1.98899e-11
7.71441e-11
-5.9179e-11
-3.96287e-10
-8.21362e-11
-1.94283e-10
-9.73172e-10
-1.08749e-09
1.37381e-10
1.2121e-09
5.84186e-10
5.02513e-10
4.36312e-10
-2.74964e-12
-2.52128e-10
-1.98779e-10
2.4077e-10
4.78606e-11
1.14828e-10
6.56901e-10
-5.36758e-10
-9.94899e-11
7.08664e-10
-6.7502e-10
-2.0526e-09
-1.0864e-09
6.62674e-11
1.78765e-10
1.41156e-10
2.51652e-11
4.91426e-10
-5.04295e-10
-1.78886e-09
1.84947e-09
-8.80567e-10
4.89968e-11
1.0244e-11
-9.92178e-11
-2.29901e-11
-1.63331e-11
-1.2696e-12
2.36765e-10
-1.45031e-11
-1.15593e-09
-9.21742e-10
5.76935e-11
-5.60569e-10
-1.04968e-09
-4.16041e-10
1.1627e-09
8.64056e-10
-5.09932e-11
4.42765e-10
2.11532e-13
-2.58049e-10
-3.12004e-10
-4.58721e-11
-8.42694e-12
-1.95141e-10
1.26607e-09
1.30018e-09
-6.56958e-10
6.59694e-10
-9.8959e-10
-2.28945e-09
-7.00807e-10
7.50985e-11
1.85887e-10
1.32578e-10
-5.55069e-12
8.76693e-10
2.74741e-09
1.49439e-09
1.62452e-09
-1.39227e-09
-2.28376e-10
-6.1515e-11
-1.40453e-10
-4.39249e-11
-3.17664e-11
1.33797e-11
3.82939e-10
1.11949e-10
-1.50051e-09
-1.74367e-09
-2.25145e-10
-6.2364e-11
-6.97358e-10
-5.64869e-10
2.92896e-10
-1.27346e-10
-3.05327e-10
6.82336e-11
-3.43152e-11
2.57282e-10
1.40754e-10
-1.90685e-10
-5.65121e-13
-9.51765e-11
5.95902e-10
2.85264e-09
8.37903e-10
-1.02554e-10
-7.96713e-10
-2.48841e-09
-1.36871e-09
-3.93254e-10
1.05103e-10
1.74774e-10
-1.57216e-12
1.29165e-09
4.30538e-09
3.46112e-09
7.52587e-10
-9.73905e-11
3.38061e-10
-1.11828e-10
-7.83704e-11
-3.45053e-11
-4.64233e-11
2.92695e-11
5.20851e-10
2.37378e-10
-1.83025e-09
-2.19225e-09
-4.44439e-10
1.0076e-10
-3.15225e-10
-3.78828e-10
-2.48577e-10
-1.22054e-09
-1.19908e-09
3.15624e-11
-2.19287e-10
8.31631e-10
6.30527e-10
-1.01555e-10
-3.4407e-11
1.10815e-11
2.20162e-10
2.33156e-09
2.98805e-09
-9.78509e-11
-1.95314e-10
-2.7828e-09
-3.16124e-09
-1.35835e-09
2.21994e-10
2.89786e-10
1.65905e-11
1.02504e-09
3.86535e-09
3.01033e-09
-3.56462e-10
1.18216e-09
2.18163e-10
5.08257e-12
-6.50988e-12
-3.77902e-11
-7.21029e-11
2.85899e-11
5.78238e-10
4.86969e-10
-2.06935e-09
-2.98467e-09
-7.37584e-10
1.1522e-10
-1.30855e-10
-1.93138e-10
-2.31456e-10
-1.12229e-09
-1.78415e-09
2.20069e-10
-2.77992e-10
6.14715e-10
3.60599e-10
-5.4694e-11
-2.54233e-11
-7.04803e-12
1.62498e-10
1.96518e-09
4.28e-09
7.4477e-10
3.45462e-11
-2.53794e-09
-4.27602e-09
-1.5228e-09
6.81044e-10
4.4323e-10
3.21009e-12
1.3343e-11
1.22607e-09
1.05685e-09
-4.50662e-10
5.55277e-10
3.09321e-11
1.57524e-11
-3.29957e-11
-6.5881e-11
-1.14461e-10
-3.22718e-11
3.0668e-10
5.49573e-10
-1.40403e-09
-3.87826e-09
-1.68231e-09
2.1932e-11
-5.38964e-11
-7.59084e-11
-2.48492e-10
-8.30236e-10
-8.28581e-10
1.226e-10
-4.36054e-11
9.32324e-11
2.93473e-11
-1.06173e-11
-7.60464e-13
9.21808e-12
2.24922e-11
1.53514e-09
5.35462e-09
2.1758e-09
-1.68886e-10
-1.28796e-09
-3.43852e-09
-7.50448e-10
1.09188e-09
6.18287e-10
-4.02029e-12
-6.12097e-10
-1.79407e-09
-6.53914e-10
-1.55546e-10
2.01863e-10
1.06228e-10
1.35296e-11
-7.25791e-11
-1.03079e-10
-1.36362e-10
-1.15635e-10
-3.05516e-12
7.23466e-11
-3.05675e-10
-3.35304e-09
-3.08989e-09
-4.2316e-10
-2.03002e-12
-4.90806e-11
-2.66863e-10
-5.73387e-10
-2.18064e-10
6.01481e-11
5.74309e-11
2.68768e-11
-1.1643e-12
5.39891e-13
1.44625e-14
-4.25395e-13
-1.27417e-13
6.89026e-10
4.99705e-09
3.42583e-09
-4.07396e-10
-1.12187e-10
-1.60476e-09
-1.60325e-11
1.22576e-09
6.8326e-10
-1.485e-12
-4.26559e-10
-3.07166e-09
-2.20184e-09
-3.91207e-10
2.22911e-10
4.77247e-11
1.54905e-10
4.4468e-10
1.4653e-10
-1.40138e-10
-1.26791e-10
4.1879e-11
3.67575e-11
-2.79677e-12
-1.57352e-09
-3.62818e-09
-1.27316e-09
-2.84996e-11
-3.68068e-11
-2.17762e-10
-3.74906e-10
-9.47984e-11
1.17093e-10
1.46682e-10
1.09321e-10
8.54226e-11
1.14095e-11
1.89427e-12
3.55643e-12
-9.45862e-13
3.27853e-10
3.42782e-09
3.44348e-09
-2.12351e-10
1.3737e-10
-6.40184e-10
4.0982e-11
8.77633e-10
4.51141e-10
-1.75401e-11
-9.67399e-11
-2.10805e-09
-2.47225e-09
-4.31719e-10
-1.6939e-11
4.21933e-10
1.81296e-09
1.26763e-09
1.27257e-10
-3.7012e-11
9.37313e-12
-2.36207e-11
-3.93547e-11
7.93191e-12
-4.30499e-10
-2.89197e-09
-2.27288e-09
-2.79777e-10
-2.76413e-12
-1.56834e-10
-1.8346e-10
-4.56136e-11
2.53826e-11
-2.78103e-11
1.00572e-10
2.46542e-10
7.59657e-11
-3.18645e-12
2.39575e-11
-7.79394e-13
3.1968e-10
2.51304e-09
3.16105e-09
1.66789e-10
2.79183e-11
-8.86401e-10
-8.2709e-10
2.01564e-10
2.73051e-10
-1.31201e-12
-9.09786e-11
-8.50794e-10
-8.64503e-10
-3.25103e-11
2.18374e-10
2.23129e-09
2.49577e-09
5.09332e-10
-7.22523e-11
1.92588e-10
2.41772e-10
-8.69438e-11
7.22137e-11
3.92517e-12
-9.00783e-11
-1.51914e-09
-2.77623e-09
-1.03229e-09
-3.45571e-11
-3.49699e-11
-1.10334e-11
-2.17372e-12
-3.28533e-11
-1.12202e-10
1.61793e-11
2.40847e-10
1.1058e-10
-7.47719e-12
6.13727e-11
-9.63241e-12
3.28396e-10
1.89117e-09
1.98237e-09
8.16675e-12
-3.75995e-11
-1.47925e-09
-1.28473e-09
1.12933e-10
2.23847e-10
-2.6388e-12
-5.56035e-11
-1.53623e-10
2.14487e-10
-6.83189e-11
4.15788e-10
1.68469e-09
5.68171e-10
-1.23948e-10
-9.40881e-11
9.66212e-11
3.66523e-10
2.05736e-10
-4.09365e-10
-3.11031e-10
-1.57019e-11
-3.04248e-10
-1.31709e-09
-1.29679e-09
-3.64595e-10
1.51508e-11
-6.98428e-11
-5.12053e-12
-4.49442e-11
-2.63983e-10
-1.26938e-10
1.63377e-10
2.71904e-11
2.23271e-11
1.89916e-10
-8.48046e-11
1.55052e-10
1.02556e-09
4.98153e-10
-5.81006e-11
-9.66132e-11
-8.12012e-10
-3.16498e-10
1.20613e-10
6.82421e-11
-5.69481e-13
-1.12256e-11
8.05027e-11
4.01069e-11
-2.20077e-10
1.21562e-10
2.93408e-11
-4.83913e-11
3.97514e-12
1.44541e-11
1.13701e-12
-2.13233e-11
1.52067e-10
-1.39934e-09
-3.58786e-09
-1.30755e-09
1.40935e-10
-2.0031e-10
-3.4626e-10
-3.33631e-10
-1.69124e-10
-3.19211e-10
-3.01964e-10
-2.65578e-11
-7.59216e-11
-6.60423e-11
7.56623e-11
6.14182e-12
-6.01085e-12
-1.06547e-10
-6.03508e-10
-1.12259e-10
6.5042e-10
1.11825e-10
3.27167e-11
7.3404e-11
-3.22396e-11
-1.84753e-11
1.69721e-11
2.1684e-11
-2.67024e-12
-2.13177e-11
-5.8349e-12
-1.77656e-12
-3.94277e-11
-7.64486e-13
3.07377e-12
-5.80502e-11
-3.25024e-11
1.92526e-10
-4.05098e-11
-5.23363e-10
-9.46102e-12
-1.86218e-09
-6.16721e-09
-4.04679e-09
-2.75975e-10
-1.83823e-11
3.24869e-10
4.34964e-10
4.03981e-12
-1.29076e-10
-2.13926e-10
-1.34413e-10
1.93021e-11
-3.03326e-12
-6.29068e-11
2.41694e-11
6.48272e-11
-2.43831e-10
-9.53276e-10
-5.72558e-10
7.16966e-10
3.106e-10
-3.39502e-10
-2.03676e-10
-1.06342e-12
-1.71846e-11
-4.35717e-11
-6.00835e-12
-6.72289e-12
-2.365e-11
4.25797e-12
-4.95931e-12
-2.7735e-12
1.69877e-11
-3.19336e-11
-3.66476e-11
1.27828e-10
1.94119e-10
-2.00701e-10
-5.65381e-10
3.61352e-11
-7.74488e-10
-4.40675e-09
-3.61045e-09
-3.8281e-10
5.49228e-12
5.56134e-10
7.98587e-10
2.46363e-10
3.9959e-12
1.11865e-10
2.71517e-11
-8.01133e-13
-4.53848e-11
-8.92074e-11
-3.07045e-12
2.09088e-13
-4.0706e-11
-4.41025e-10
-3.93094e-10
2.31311e-10
1.31134e-10
-2.07859e-10
-4.69423e-10
-7.65828e-11
1.24676e-10
3.12031e-11
-9.75811e-13
-5.73425e-12
4.84746e-12
3.12177e-11
1.2009e-12
5.98942e-12
2.89045e-11
-6.99091e-11
-1.31524e-10
3.84496e-11
2.30016e-10
1.57928e-10
-2.1051e-11
2.25143e-11
-2.00087e-10
-1.32681e-09
-1.74298e-09
-2.7148e-10
2.96394e-11
1.36238e-10
3.66002e-10
1.13416e-10
-1.82208e-11
1.33722e-12
8.19289e-13
-9.48082e-13
-1.04465e-12
6.08142e-11
8.08881e-11
-1.70723e-11
2.32749e-11
-9.6166e-11
1.175e-10
2.50676e-10
-4.22061e-11
2.703e-12
-4.74139e-11
-2.05799e-12
-1.13156e-10
-6.00639e-11
1.28543e-11
1.33721e-11
4.66014e-12
9.09253e-13
-7.29419e-12
-1.18645e-10
-4.0084e-10
-4.47395e-10
-1.16136e-10
2.74576e-10
5.22411e-10
3.77127e-10
5.00902e-11
-2.13831e-12
-1.4613e-10
-2.18902e-10
-5.54553e-11
3.59798e-11
-7.50424e-12
1.16232e-10
2.48548e-10
1.09265e-10
3.29185e-13
-1.86648e-12
1.85653e-12
1.0062e-12
-3.63353e-11
-1.11837e-10
-6.00647e-11
1.44173e-10
5.09615e-11
-5.67384e-10
-5.39082e-10
2.2733e-10
2.67639e-10
4.54193e-11
1.79939e-12
-2.52979e-13
3.86399e-12
-1.41574e-11
-9.7205e-11
-1.51737e-10
-1.24462e-10
-8.71551e-11
-6.98781e-11
-3.54826e-11
1.14064e-11
2.55947e-11
-2.53686e-12
9.43464e-11
3.20925e-10
1.99801e-10
-1.84599e-12
-2.14615e-11
-4.87915e-10
-4.31039e-10
1.29397e-10
8.20245e-11
2.58835e-11
2.45834e-10
2.62146e-10
8.24934e-11
1.04438e-10
-1.16502e-11
9.55349e-12
-1.66015e-12
6.62207e-12
-7.95249e-11
5.27648e-12
2.7739e-10
1.49087e-10
-1.67439e-10
-2.57406e-10
-1.1747e-10
4.13526e-12
5.02023e-12
-1.0527e-11
-2.55399e-12
1.43439e-11
9.60675e-12
-1.28773e-12
-1.62793e-12
-6.54376e-11
-2.23756e-10
-2.44789e-10
-5.1646e-11
3.09616e-11
2.38921e-12
-1.65914e-14
2.81136e-11
6.30589e-11
-9.34809e-11
1.39297e-11
1.79719e-10
-3.52907e-10
-5.0597e-10
7.36446e-11
1.04104e-10
-1.26967e-10
2.7069e-10
7.17767e-10
5.25618e-10
-2.86294e-14
5.9787e-14
2.91982e-13
-1.77135e-13
-4.80812e-13
2.91521e-13
5.02348e-13
-1.58901e-13
-2.24911e-13
6.00217e-13
1.47294e-12
1.83282e-12
5.07698e-13
-3.11249e-12
5.72879e-13
1.86416e-12
1.90536e-12
3.36956e-12
7.70199e-12
5.797e-13
3.32469e-14
7.80223e-13
4.19438e-13
-2.20989e-12
-7.60548e-12
-8.25024e-12
-6.21142e-12
-4.59716e-12
-2.22251e-12
7.37834e-15
1.37438e-12
2.4775e-12
3.27093e-12
1.90358e-12
1.41087e-13
-1.1204e-12
-2.43273e-13
7.54095e-14
-8.2054e-14
6.34143e-13
6.9315e-12
1.10768e-11
4.89519e-12
-2.72302e-12
1.34343e-11
1.62473e-11
5.84504e-12
-3.99388e-12
-2.18299e-12
-3.79468e-14
1.25226e-11
4.72189e-11
8.16224e-11
1.11354e-10
2.36014e-10
3.97388e-10
5.52584e-10
6.43547e-10
4.95815e-10
-8.76923e-12
6.95215e-11
1.14071e-10
8.12282e-12
-6.101e-11
-2.50413e-10
-3.07599e-10
-1.89269e-10
-6.42243e-11
2.06009e-11
5.57286e-11
5.64639e-11
4.03725e-11
2.53686e-11
1.15056e-11
-1.75722e-12
-3.9685e-12
-4.98919e-12
2.86668e-11
1.79518e-12
9.58816e-13
2.69819e-11
3.719e-11
1.69115e-11
3.00101e-13
3.20523e-11
2.88658e-11
6.11881e-12
-1.67296e-12
1.57396e-11
1.72141e-11
1.75385e-13
1.95335e-11
8.44822e-11
1.75005e-10
3.09115e-10
4.70806e-10
6.25278e-10
7.37559e-10
6.24515e-10
-2.22706e-11
5.65467e-11
2.66071e-10
-4.0723e-11
-2.47846e-11
-3.04337e-10
-4.6503e-10
-2.61915e-10
-5.69176e-11
1.1003e-11
-3.68343e-11
-1.00762e-10
-9.59262e-11
-5.15707e-11
-6.09244e-12
-3.24845e-12
-4.26126e-13
-4.74935e-13
8.18772e-11
4.09612e-11
2.4323e-12
6.38524e-12
3.02862e-11
1.27452e-11
9.69119e-13
4.56555e-11
4.85299e-11
1.47987e-11
-8.87426e-14
1.74876e-11
2.52406e-11
7.66398e-12
2.01087e-12
4.48524e-11
1.03149e-10
1.51848e-10
2.03059e-10
2.4343e-10
2.83613e-10
3.1607e-10
4.00491e-11
6.73159e-11
-3.01738e-10
-8.96571e-10
6.55938e-11
-9.60182e-11
-3.06932e-10
-1.43957e-10
-8.32548e-12
-1.98568e-11
-1.32711e-10
-2.7717e-10
-2.47699e-10
-9.10461e-11
1.12798e-11
-2.24531e-12
-1.34235e-11
-6.27251e-12
1.5036e-10
2.30618e-10
-4.75377e-11
-1.30174e-10
-3.65946e-12
1.32944e-12
-6.88073e-14
5.46133e-11
7.68214e-11
2.96884e-11
-5.52818e-12
6.80841e-12
2.85247e-11
1.86763e-11
-2.34659e-12
2.0519e-11
7.02635e-11
1.10067e-10
1.48398e-10
1.21392e-10
9.14338e-11
2.24888e-10
1.81398e-10
2.72998e-11
-7.48418e-10
-2.94487e-09
-1.24818e-10
4.59097e-11
-1.99924e-10
-1.33801e-10
-4.03918e-12
-8.99095e-13
-5.12171e-11
-2.36103e-10
-2.68265e-10
-9.30369e-11
1.62933e-11
-6.78158e-11
-1.52774e-10
-7.83515e-11
1.76109e-10
6.3923e-10
-7.10748e-11
-5.74824e-10
-1.49477e-10
7.59365e-12
-1.37158e-12
6.4861e-11
1.16686e-10
5.65556e-11
-9.67738e-12
-2.56099e-11
4.04857e-11
6.22139e-11
4.53342e-12
-1.99702e-11
7.3347e-13
4.70127e-11
1.05945e-10
2.25815e-11
-9.48118e-11
1.41808e-10
3.95269e-10
-2.5183e-11
-2.71444e-10
-4.49128e-09
-1.13385e-09
1.70103e-10
-4.49165e-11
-1.49479e-10
-1.65984e-11
-6.80781e-12
-5.65201e-11
-2.57495e-10
-3.20285e-10
-1.15989e-10
2.7036e-11
-2.96165e-11
-2.44543e-10
-2.41608e-10
1.05665e-10
1.0227e-09
3.27301e-10
-1.078e-09
-8.04899e-10
1.29517e-11
2.06573e-12
7.76235e-11
1.80037e-10
1.02224e-10
8.92933e-12
-7.25892e-11
-3.05846e-12
1.26404e-10
3.52615e-11
-7.33774e-11
-8.51209e-11
-2.37272e-11
3.05782e-11
-1.0769e-10
-2.70475e-10
1.02338e-10
5.44888e-10
-3.51436e-11
-1.07124e-10
-4.88959e-09
-2.59672e-09
3.90375e-10
1.45133e-10
7.82176e-11
-5.94719e-12
-1.50533e-11
-1.33443e-10
-3.34016e-10
-2.96378e-10
-5.06053e-11
8.40322e-12
2.22105e-11
-1.40913e-10
-3.7945e-10
-1.19434e-10
1.03389e-09
1.19615e-09
-7.79742e-10
-2.15628e-09
-2.09207e-10
3.29658e-11
6.55313e-11
2.3632e-10
1.69587e-10
4.95407e-11
-2.87304e-11
-8.74862e-11
4.90245e-11
4.32975e-11
-1.92857e-10
-2.27363e-10
-8.50018e-11
8.5656e-14
-1.73392e-10
-3.86266e-10
2.25287e-10
6.20096e-10
-2.41799e-11
9.37743e-11
-4.22674e-09
-2.83126e-09
5.92092e-10
1.38744e-10
2.81259e-10
4.32093e-11
-3.10515e-11
-1.94651e-10
-3.42843e-10
-1.09105e-10
7.13262e-11
-4.63991e-10
-4.44668e-10
2.51285e-12
-2.6007e-10
-3.70411e-10
6.16035e-10
1.71331e-09
-9.69896e-13
-2.92778e-09
-1.02186e-09
7.16394e-11
4.07469e-11
2.64466e-10
1.95385e-10
5.0533e-11
2.10882e-11
-2.93993e-11
-1.76478e-10
-2.71098e-10
-6.05181e-10
-6.02578e-10
-1.80854e-10
2.18995e-11
-1.38046e-10
-4.11512e-10
3.67825e-10
5.06249e-10
2.0822e-12
9.3167e-10
-1.92964e-09
-1.69635e-09
6.01035e-10
2.72578e-11
2.18809e-10
3.69195e-11
-8.55357e-11