/*--------------------------------*- C++ -*----------------------------------*\
| =========                 |                                                 |
| \\      /  F ield         | OpenFOAM: The Open Source CFD Toolbox           |
|  \\    /   O peration     | Version:  5.0                                   |
|   \\  /    A nd           | Web:      www.OpenFOAM.org                      |
|    \\/     M anipulation  |                                                 |
\*---------------------------------------------------------------------------*/
FoamFile
{
    version     2.0;
    format      ascii;
    class       volScalarField;
    location    "50.4676134421789371";
    object      UVWMean;
}
// * * * * * * * * * * * * * * * * * * * * * * * * * * * * * * * * * * * * * //

dimensions      [0 3 -3 0 0 0 0];

internalField   nonuniform List<scalar> 
60000
(
8.09658e-14
1.14934e-12
9.70561e-13
6.06486e-14
6.56254e-14
7.55674e-15
-3.97797e-14
-3.63302e-14
-1.19669e-14
-8.91479e-15
-3.00576e-13
-2.1955e-13
-5.45765e-14
-3.77917e-14
2.19897e-14
1.85718e-13
3.68707e-14
-4.35707e-13
-3.19831e-12
-7.36125e-12
-8.60582e-12
-1.77218e-12
-1.16931e-12
-2.01447e-12
7.57775e-12
1.32104e-11
6.9824e-12
-2.85608e-12
-3.25663e-12
-7.0417e-13
6.10033e-13
3.72405e-12
8.10154e-12
7.3282e-12
1.25546e-12
4.9651e-13
9.32318e-15
-2.27957e-13
-7.89969e-13
-6.60226e-13
-2.13727e-11
1.02274e-12
1.08193e-12
1.79437e-12
6.43894e-12
7.17253e-13
3.23127e-13
3.08513e-13
3.36019e-13
-1.38946e-11
-3.5849e-11
-2.21909e-11
-2.24483e-12
-1.05002e-13
-2.10909e-12
-7.39034e-12
-2.20714e-11
-3.72676e-11
-2.07841e-11
2.55157e-11
1.72089e-11
-4.87763e-11
-2.64235e-11
1.95118e-10
3.89264e-10
3.26985e-10
1.61887e-10
5.27958e-11
-1.63404e-11
-6.28616e-12
2.6316e-12
5.49761e-12
5.14621e-11
9.76032e-11
7.19623e-11
3.82774e-12
7.22767e-13
9.69705e-13
-1.87447e-11
-3.9472e-11
-7.92316e-11
-2.81923e-11
-7.02207e-13
6.8564e-13
7.58078e-12
6.804e-12
-2.5646e-14
1.03046e-12
2.05382e-12
-1.62636e-11
-7.62002e-11
-7.80328e-11
-1.59443e-11
-6.22161e-14
-6.28389e-12
-3.84663e-11
-9.42703e-11
-1.04682e-10
-2.9348e-11
5.35025e-11
5.36386e-12
-2.2905e-10
-1.28059e-10
5.24168e-10
7.64862e-10
3.69055e-10
-4.24117e-12
-2.36808e-11
4.67234e-12
2.63572e-12
3.64602e-12
-4.95845e-12
-6.091e-13
4.72871e-11
8.12155e-11
2.51173e-11
2.58118e-13
3.94389e-13
1.21345e-11
-4.56544e-11
-9.32872e-11
-4.04228e-11
1.09029e-13
1.44645e-12
1.25815e-11
2.21764e-11
8.97745e-12
-1.90891e-12
1.33476e-13
2.16057e-13
-7.4889e-11
-9.94208e-11
-1.41154e-11
4.03511e-15
4.42004e-12
-3.70839e-11
-1.1661e-10
-8.20163e-11
-1.46891e-13
-4.26645e-11
-6.08382e-13
-1.76828e-10
-1.47859e-10
7.45604e-10
8.19092e-10
2.03318e-10
-1.11286e-10
-1.63795e-11
3.5552e-11
-1.31003e-12
-1.33396e-11
-1.04386e-12
2.06944e-12
3.75568e-12
2.46795e-11
-1.95559e-12
-5.9823e-13
1.0603e-12
-1.00245e-12
-7.19187e-12
-8.68264e-11
-7.73595e-11
1.15311e-11
9.70491e-13
2.12101e-11
3.58619e-11
3.09067e-11
-4.63431e-12
7.6331e-14
2.37641e-12
-6.03565e-11
-1.90036e-10
-3.09638e-11
4.18083e-12
2.13619e-11
-3.0052e-11
-1.84854e-10
-9.14574e-11
2.69264e-11
-2.78516e-10
-1.24039e-10
7.60898e-11
-2.41182e-10
1.23369e-09
1.20811e-09
2.32749e-10
-1.13937e-10
-5.968e-12
5.31451e-11
-2.46774e-11
-5.51474e-11
-2.28056e-11
4.12576e-12
-4.14154e-12
-3.45626e-11
-5.93604e-11
-2.90102e-11
3.82649e-11
-1.73274e-11
3.92653e-12
-1.72364e-11
-1.62932e-10
-2.6263e-11
1.74423e-12
1.13276e-11
2.86359e-11
3.49614e-11
1.21458e-11
4.45429e-12
-6.35441e-12
-8.71462e-12
-2.65113e-10
-1.91888e-10
1.15735e-11
8.32302e-12
-1.17173e-10
-4.75645e-10
-2.243e-10
2.31763e-11
-4.10998e-10
-6.10271e-10
5.13641e-10
-4.17525e-10
1.95635e-09
1.78221e-09
2.81373e-10
-9.91009e-11
-2.37866e-11
7.78646e-11
6.78795e-11
-5.80495e-12
-2.45784e-11
-9.46653e-12
-5.56657e-12
-4.17537e-11
-9.7549e-11
-6.2397e-11
5.4285e-11
5.47227e-11
-9.88566e-12
-1.23556e-12
-6.83117e-11
-9.52307e-11
-4.31339e-12
-5.71687e-13
7.85144e-12
1.53212e-11
2.32703e-11
2.70962e-11
7.67548e-12
9.88542e-12
-2.59674e-11
-2.69778e-10
-5.1063e-11
6.82222e-13
-4.39493e-10
-1.14752e-09
-4.31039e-10
-1.23382e-12
-2.70798e-10
-1.07886e-09
9.72142e-10
-3.01874e-10
1.98638e-09
1.59696e-09
2.29266e-10
-7.21195e-11
-3.14312e-11
5.8493e-11
9.44099e-11
6.29925e-11
1.49823e-11
-3.02138e-12
-1.09037e-11
-4.24969e-11
-1.05102e-10
-7.94262e-11
2.61321e-11
9.61237e-11
4.58355e-11
2.29924e-11
1.78018e-12
-1.7107e-11
-7.37767e-12
2.4401e-12
6.12749e-14
2.80647e-13
3.39875e-12
2.64986e-11
2.64251e-11
1.3747e-11
3.68481e-10
8.20022e-11
-1.10292e-10
4.1469e-11
-1.13199e-09
-1.96801e-09
-6.18985e-10
-6.43371e-12
8.28392e-12
-6.77106e-10
1.16411e-09
3.23208e-10
9.56202e-10
8.88284e-10
2.19459e-10
-2.18682e-11
-2.61603e-11
4.29857e-11
7.39307e-11
4.87491e-11
-3.76336e-12
-2.59552e-11
-7.05818e-15
-1.70076e-11
-9.88241e-11
-8.38155e-11
1.30048e-11
7.27566e-11
9.60671e-11
8.89294e-11
2.96543e-12
2.23133e-11
4.12085e-12
3.94945e-12
3.25778e-12
-2.2351e-15
1.86586e-12
5.85629e-13
2.23344e-12
3.10516e-11
6.21018e-10
5.44667e-10
-3.61714e-11
9.37084e-11
-1.75409e-09
-2.18382e-09
-5.95414e-10
-2.1462e-12
9.9946e-11
2.5841e-10
1.26962e-09
9.99657e-10
-2.29597e-10
1.83264e-10
2.65692e-10
8.86566e-11
-8.52204e-12
3.77402e-11
5.66037e-11
1.61672e-11
-3.89493e-11
-1.02512e-10
-9.38765e-11
2.77669e-12
-6.1672e-11
-1.11559e-10
-1.19129e-11
5.56675e-11
8.99855e-11
1.09464e-10
5.42238e-11
-1.12968e-11
-2.76337e-11
4.42626e-12
6.28739e-12
-2.97456e-12
6.15374e-12
3.57342e-12
-6.40433e-12
5.92317e-11
7.80438e-10
5.94677e-10
5.14472e-11
-1.83933e-11
-1.87355e-09
-1.66918e-09
-3.99564e-10
-2.15068e-12
1.52231e-11
5.17927e-10
1.17334e-09
9.81534e-10
-9.38105e-10
-3.62295e-10
3.5654e-10
2.14747e-10
3.43465e-12
3.67323e-11
4.22523e-11
-7.09214e-12
-3.4748e-11
-9.9076e-11
-1.75351e-10
-6.25546e-11
-1.05023e-11
-1.11123e-10
-7.85506e-11
2.9026e-12
5.96375e-11
3.90514e-11
7.91493e-11
-2.77218e-11
-7.11789e-11
2.03772e-11
1.36225e-11
-3.83679e-12
6.87953e-12
5.13399e-13
6.6244e-12
4.33631e-11
8.56229e-10
6.88885e-10
-1.20637e-10
-2.10283e-10
-1.68171e-09
-1.27038e-09
-2.56211e-10
-1.99887e-12
-4.84894e-12
1.36337e-10
5.1656e-10
4.36476e-10
-6.8005e-10
-6.27015e-10
3.12898e-10
2.25818e-10
8.02378e-13
3.38736e-11
2.9213e-11
-8.62779e-12
2.1822e-11
-4.01662e-11
-1.95403e-10
-1.03774e-10
5.09344e-13
-7.63634e-11
-1.03563e-10
-6.15295e-11
-1.62931e-11
-3.35778e-11
1.50056e-11
-1.28281e-11
-6.79444e-11
3.16373e-12
-1.30697e-11
2.16273e-12
1.12714e-13
6.26203e-13
1.13387e-11
7.32923e-12
6.67772e-10
9.62939e-10
-1.51486e-10
-1.3183e-10
-1.33768e-09
-9.44685e-10
-5.69491e-11
7.16341e-12
6.79498e-13
-2.86315e-11
-1.60201e-10
-9.07424e-11
-1.64922e-10
-5.61157e-10
9.48622e-11
1.13495e-10
-2.45591e-12
2.84865e-11
1.74571e-11
1.15301e-11
1.50443e-10
9.12684e-11
-2.32508e-10
-1.66075e-10
8.9592e-12
-5.54156e-11
-8.1007e-11
-6.16819e-11
-5.06051e-11
-1.90113e-11
-1.06417e-11
2.45875e-12
-2.63086e-11
-7.17796e-11
-7.47278e-11
-6.06453e-12
8.84018e-13
4.33823e-13
1.66588e-11
1.58443e-12
4.30222e-10
1.20247e-09
1.62261e-11
3.06051e-11
-7.12148e-10
-3.75189e-10
2.6689e-10
6.25813e-11
7.08301e-12
-8.78844e-11
-4.32527e-10
-2.84442e-10
-3.40563e-11
-4.30478e-10
-2.36749e-10
-8.03264e-12
5.9133e-14
2.24538e-11
1.3255e-12
3.80185e-12
2.36776e-10
3.24264e-10
-2.62693e-10
-3.58993e-10
-1.04492e-11
-2.46875e-11
-4.79397e-11
-3.61455e-11
-5.37578e-11
-4.34196e-11
3.07475e-11
-4.5352e-12
-2.6764e-12
-6.19371e-11
-9.99412e-11
-5.89573e-11
-3.1715e-12
2.18325e-12
6.14872e-12
3.68959e-11
1.52588e-10
1.31012e-09
3.76496e-10
4.10441e-11
-1.29295e-10
1.04686e-10
6.81512e-10
2.4599e-10
-4.65629e-11
-6.63061e-11
-6.27328e-10
-2.59506e-10
-1.36488e-11
-3.91036e-10
-3.68049e-10
-3.53405e-11
4.94683e-13
1.19151e-11
-2.11506e-11
-4.83536e-11
1.02466e-10
3.70843e-10
-2.18846e-10
-7.38589e-10
-1.67967e-10
9.92208e-12
-1.81644e-11
-5.32444e-12
-5.13371e-11
-5.03823e-11
-4.43341e-12
2.10809e-13
1.4414e-11
9.5701e-13
-5.00758e-11
-6.97482e-11
-3.63732e-11
-1.79544e-12
-1.17622e-11
2.35255e-11
-8.36661e-12
8.54042e-10
7.71151e-10
-2.04799e-11
9.37687e-12
3.69142e-10
1.02227e-09
3.70874e-10
-5.41724e-11
5.01864e-11
-9.18076e-10
-6.74268e-10
-6.69646e-12
-2.48091e-10
-2.1248e-10
-1.24454e-11
1.5751e-12
-7.01442e-12
-2.94802e-11
-5.5639e-11
-5.86828e-11
1.3117e-10
-1.72654e-10
-1.26626e-09
-6.53861e-10
5.30918e-12
-2.71108e-13
2.429e-11
-1.84032e-11
-4.02278e-11
-4.1126e-11
-1.32476e-11
1.79219e-11
2.92817e-11
1.19975e-11
-9.41903e-12
-6.63009e-12
-2.86749e-12
1.33456e-12
-3.39597e-13
-1.10161e-10
2.56562e-10
8.48891e-10
1.44193e-10
-2.10614e-11
3.75383e-10
5.32294e-10
1.59296e-10
3.37751e-12
2.26159e-10
-1.60112e-10
-5.62911e-10
-3.47222e-11
-1.37709e-10
-1.50382e-10
-2.32291e-11
-2.62258e-12
6.25729e-12
2.33441e-11
2.48788e-11
-4.01837e-11
-1.74912e-11
-1.47519e-10
-1.5162e-09
-1.70551e-09
-2.77447e-10
1.34373e-12
2.98433e-11
1.22892e-11
-1.71957e-11
-3.25643e-11
-2.70134e-12
-9.14412e-12
2.43197e-11
7.01842e-11
1.60095e-11
-2.28947e-14
-1.03117e-12
1.65194e-14
-2.54585e-12
-1.45236e-10
4.55744e-12
6.19795e-10
1.11428e-10
1.64935e-11
-6.88614e-12
7.20979e-11
5.98246e-11
4.67659e-12
8.79789e-11
2.74162e-10
1.60747e-10
4.14942e-12
9.31156e-11
1.38756e-10
-9.65911e-11
-4.34563e-11
3.05237e-11
1.05356e-10
1.58928e-10
3.76654e-11
-1.42501e-11
-6.13695e-11
-1.08266e-09
-2.38771e-09
-1.25876e-09
-9.09664e-11
-5.24659e-13
1.35792e-11
1.20862e-13
-1.00806e-11
1.71174e-13
-2.26304e-11
8.46224e-12
8.22147e-11
1.05117e-11
1.76405e-11
6.47071e-12
-8.23741e-13
-1.20235e-11
-1.08342e-10
-5.35501e-11
1.96337e-10
5.64535e-13
-3.1802e-11
-1.44205e-10
1.32758e-10
5.97124e-11
-1.4173e-11
1.49971e-11
2.26398e-10
2.88681e-10
-4.53681e-11
1.8186e-10
8.39349e-11
-7.35787e-11
-4.34208e-12
3.13971e-11
1.08368e-10
1.43084e-10
1.79921e-10
2.34234e-11
3.12823e-12
-2.73027e-10
-1.42325e-09
-1.74759e-09
-5.66763e-10
-1.44255e-11
-4.15432e-12
-1.03363e-13
5.01896e-12
7.9504e-12
-4.87497e-11
-2.84373e-11
6.74965e-11
-7.3095e-11
1.15472e-10
1.9593e-10
1.08354e-11
2.22426e-11
-6.88991e-13
-6.86105e-11
-5.05167e-11
1.04747e-11
-7.01973e-11
3.72921e-11
2.54868e-10
8.69537e-11
-2.03824e-11
8.54871e-13
2.84127e-11
6.46847e-11
-3.24384e-11
9.25609e-12
2.49339e-11
1.52068e-11
-5.19112e-12
2.91214e-11
1.21995e-10
-1.50276e-10
6.22157e-11
8.98855e-11
-4.29994e-10
-4.08824e-11
-2.11032e-10
-7.93994e-10
-6.94364e-10
-1.85859e-10
-1.02607e-11
-7.21611e-11
2.73304e-11
7.06613e-11
-1.5901e-10
-5.45694e-11
4.11192e-11
-8.10469e-11
3.16181e-11
1.3533e-10
-9.85687e-12
1.34788e-10
2.28363e-10
3.85597e-11
4.70895e-12
5.87841e-12
-2.63102e-11
2.00849e-11
9.66631e-11
6.66621e-11
-1.06167e-13
8.44035e-12
9.48231e-12
-7.05469e-12
5.1797e-12
2.09461e-11
-8.27693e-12
-1.28179e-11
7.10038e-11
2.10887e-10
4.29921e-11
-4.33741e-10
-3.17357e-10
2.36406e-11
-6.0799e-10
-4.20882e-10
3.82716e-11
-8.1065e-11
-1.94496e-10
-1.51854e-10
-9.34533e-11
-1.19982e-11
-3.76997e-12
2.22635e-11
-9.83915e-12
-7.57036e-12
2.52269e-11
7.48584e-11
-2.37277e-11
-3.38096e-10
-2.84616e-10
7.38954e-11
2.40824e-10
6.15404e-11
-3.00134e-11
-3.17656e-12
8.74685e-12
-8.07511e-12
-3.78083e-11
-4.32866e-11
-1.43357e-11
-8.40352e-14
1.96779e-12
1.07023e-11
2.50256e-12
7.75072e-14
-7.539e-12
-1.01102e-11
1.53442e-11
5.15265e-11
1.53372e-11
-1.85728e-10
-2.51097e-10
1.04972e-10
-1.96051e-10
-4.06342e-10
-3.83402e-11
8.34066e-12
-5.43363e-12
9.95911e-12
3.47487e-12
-1.80604e-11
5.06797e-11
2.62195e-11
2.4401e-14
1.34089e-11
2.53186e-12
1.72439e-12
-1.92071e-11
-2.24268e-10
-2.34119e-10
-3.16938e-12
-4.80523e-11
2.20647e-12
2.72546e-11
-4.02273e-11
-2.03948e-11
1.37252e-11
1.68758e-11
-3.52902e-11
-2.1515e-11
1.21129e-12
-2.35185e-11
-5.28815e-11
-3.65127e-11
1.66041e-11
1.81427e-11
5.47208e-13
3.65244e-11
8.24342e-11
8.29371e-11
4.41555e-12
-7.45804e-11
6.51032e-11
1.99499e-11
-2.52093e-10
-1.13215e-10
2.17246e-14
-1.41131e-11
-8.034e-12
-4.74034e-11
-2.97875e-12
5.52826e-13
-3.89311e-12
1.21496e-12
-1.91707e-11
-5.55077e-11
-6.22163e-11
-1.44802e-12
-9.38271e-11
-1.13881e-10
8.32538e-12
-1.05601e-10
-6.61633e-11
-2.98954e-12
4.02759e-11
-1.87838e-12
-9.01851e-11
-1.36369e-11
2.95777e-11
1.44301e-11
3.87686e-12
-3.76429e-12
-2.64657e-12
-7.09236e-12
-7.10436e-11
-1.09413e-10
1.90044e-11
2.0901e-10
2.35114e-10
1.237e-10
3.54808e-11
-2.70344e-12
1.40359e-11
4.20834e-11
3.36795e-11
1.55207e-11
-4.54791e-12
9.87783e-12
3.99988e-11
1.81236e-11
4.31615e-13
2.1894e-12
5.81294e-14
1.05526e-13
-2.01111e-11
-1.50912e-10
-1.87117e-10
4.1184e-11
-1.59718e-10
-4.66492e-10
-1.35346e-10
6.86142e-11
1.41492e-11
-1.58439e-12
2.31249e-11
1.98147e-12
-5.76507e-11
-2.85367e-11
3.03426e-12
-1.22077e-11
-4.50839e-11
-8.52028e-11
-1.19306e-10
-1.23802e-10
-8.67407e-11
-2.34591e-11
4.77671e-11
1.09261e-10
1.0584e-10
3.62047e-11
-3.8946e-13
-4.0507e-13
-4.27258e-11
-6.54307e-11
2.48635e-11
3.13446e-11
4.95051e-13
2.87264e-11
2.75641e-11
4.47908e-12
1.85272e-12
3.6185e-11
-1.78202e-13
-2.84173e-11
1.71922e-11
-1.14838e-10
-1.98672e-10
9.2313e-11
1.02721e-10
-2.07629e-10
-2.52974e-10
-1.05639e-10
-1.73509e-12
2.00849e-11
4.40361e-11
5.94205e-11
3.4565e-11
6.58019e-12
-3.76476e-13
-4.75943e-12
-5.52227e-11
-1.70647e-10
-2.49684e-10
-1.8832e-10
-7.21256e-11
-2.10426e-11
4.43957e-12
3.44275e-11
1.36153e-12
-5.52965e-11
5.57466e-11
1.19511e-10
-6.85955e-11
-7.53663e-11
4.04917e-11
-2.36671e-11
-3.30186e-11
8.4116e-11
8.6112e-11
5.62935e-12
2.75117e-15
-7.30107e-14
-5.62382e-15
1.21507e-13
1.61634e-13
1.40784e-13
-1.3288e-13
-5.02462e-14
4.77585e-13
9.82619e-13
1.0094e-12
1.05513e-12
1.35289e-12
7.99599e-13
-2.89999e-13
-9.25919e-13
-1.03464e-12
-3.48093e-13
1.56493e-12
2.97705e-13
-4.01965e-12
-4.01188e-12
2.44514e-14
-6.96004e-12
-1.5395e-11
-1.92504e-11
-1.71825e-11
-1.26546e-11
-6.16895e-12
-9.31798e-13
-1.24331e-13
-2.60874e-13
2.28947e-12
3.00097e-12
-6.44202e-14
2.059e-12
1.38593e-12
9.54001e-14
-7.39392e-15
-1.90583e-15
-1.63147e-12
-8.19337e-13
-2.75354e-13
-4.16293e-14
-6.64639e-13
-3.62321e-12
-6.5245e-12
-2.80806e-12
1.48618e-12
3.59165e-12
5.97321e-12
1.8258e-11
3.27013e-11
3.84331e-11
4.31542e-11
7.00995e-11
1.17532e-10
8.23034e-11
-5.47797e-11
-3.34796e-11
3.69916e-11
1.01164e-11
-1.43953e-13
-2.71769e-11
1.18266e-11
3.36591e-11
-3.10114e-11
-6.16131e-11
-1.72386e-11
1.51565e-11
-3.12661e-11
-1.00819e-10
-9.07207e-11
-3.38984e-12
1.61047e-11
1.23026e-12
2.61729e-11
2.61046e-12
6.91514e-13
-8.56521e-13
-1.17856e-11
-5.08023e-12
-1.00665e-12
1.13808e-12
8.18578e-12
7.6341e-12
-1.08199e-11
-7.97254e-12
1.13313e-12
-6.32215e-12
-1.62487e-11
7.3892e-12
3.79211e-11
3.19218e-11
-3.82291e-12
-1.022e-11
9.62653e-11
1.81273e-10
2.31373e-11
-4.14758e-11
1.17814e-10
3.02765e-11
-1.6742e-11
-1.15258e-11
2.41396e-10
2.63404e-10
6.48295e-11
-8.00594e-12
-1.2467e-12
-9.9524e-12
-6.83777e-11
-1.39366e-10
-1.32285e-10
-3.71126e-11
3.2249e-11
5.36269e-12
9.51212e-13
5.37514e-12
4.33803e-12
-2.45314e-12
-2.25334e-11
-1.01761e-11
-6.90144e-13
4.40641e-13
7.54399e-12
1.04998e-11
-6.0854e-12
-5.21819e-12
3.23159e-12
-2.78619e-13
-1.33607e-11
-5.81108e-12
2.42009e-11
-6.43597e-12
-1.09903e-10
-1.80336e-10
-6.40514e-11
9.10011e-11
5.54936e-11
4.76251e-12
-1.63258e-10
-4.82513e-10
2.37231e-11
-6.13268e-12
3.95344e-10
3.21667e-10
3.87438e-11
4.15507e-12
7.48762e-12
-7.07241e-12
-4.03138e-11
-8.21592e-11
-6.70352e-11
-1.72713e-12
2.51916e-11
-3.50147e-11
-3.58622e-11
1.26245e-11
2.29074e-13
1.04495e-11
-1.40431e-12
-2.23309e-11
-1.00004e-12
-2.17306e-13
6.6576e-12
1.31335e-11
2.78744e-13
-1.02775e-12
-9.90733e-12
-1.3251e-11
5.75418e-12
-1.43913e-11
2.16137e-11
-2.25294e-11
-2.36229e-10
-3.84736e-10
-1.78284e-10
6.15981e-11
7.1691e-11
-2.20751e-13
-4.81469e-10
-1.8044e-09
-8.70578e-11
1.77544e-12
6.99928e-10
5.76923e-10
5.89552e-11
6.63052e-12
6.75939e-12
6.59229e-13
-2.32856e-12
-2.8427e-11
-2.5179e-11
2.93923e-12
-1.97014e-11
-1.63423e-10
-1.71087e-10
-1.49578e-12
2.58665e-11
1.5206e-11
8.72306e-11
-3.95951e-11
-1.09963e-11
-7.87734e-13
8.26218e-12
2.9702e-11
8.56349e-12
2.39365e-12
-2.71489e-11
-6.50947e-11
-1.81092e-12
-1.82994e-11
9.15704e-12
-4.51122e-11
-4.74429e-10
-7.29277e-10
-3.07945e-10
4.71262e-11
1.20778e-10
-4.49737e-13
-2.73002e-10
-2.97234e-09
-6.61385e-10
7.36959e-11
1.07472e-09
1.03346e-09
1.33086e-10
2.97519e-12
2.63226e-11
7.79019e-12
-2.03208e-11
-3.74419e-11
-1.81432e-11
3.21703e-12
-3.51936e-11
-2.06245e-10
-3.48917e-10
-8.71376e-11
1.57216e-10
-7.39782e-12
9.18503e-11
9.06893e-11
-4.08487e-11
-6.68872e-13
-1.8209e-12
5.01366e-11
3.65295e-11
-4.66652e-12
-2.07666e-11
-1.58513e-10
-5.04812e-11
-1.30831e-12
-5.73258e-12
-9.29731e-11
-7.25322e-10
-9.20557e-10
-2.63501e-10
5.71473e-11
1.29293e-10
7.74842e-12
-6.57427e-13
-3.15127e-09
-1.37761e-09
2.5428e-10
9.87232e-10
1.03523e-09
1.34273e-10
-3.59462e-12
2.30797e-11
1.53247e-11
-1.57904e-11
-1.66804e-11
-1.12528e-13
5.87391e-12
-2.08148e-11
-2.11431e-10
-4.49897e-10
-2.91816e-10
2.56411e-10
1.53805e-10
-4.23651e-12
3.49078e-10
-8.55969e-12
-6.06869e-13
-4.15403e-11
3.24204e-11
8.82347e-11
9.90776e-12
3.63314e-11
-1.26319e-10
-2.08441e-10
7.91064e-11
4.80749e-11
-1.99978e-10
-8.79058e-10
-7.27967e-10
-9.42691e-11
7.7446e-11
9.50011e-11
1.32478e-11
1.5323e-10
-2.14585e-09
-1.42008e-09
4.9002e-10
3.61936e-10
5.33518e-10
6.19607e-11
-1.72272e-11
8.85533e-12
3.40332e-12
-6.14932e-12
3.57395e-11
-4.1589e-11
-1.68329e-10
-2.39256e-11
-1.08975e-10
-4.35052e-10
-4.48696e-10
1.00417e-10
5.00857e-10
2.04525e-10
2.54835e-10
1.54729e-10
-7.92373e-13
-1.18022e-10
-6.78043e-11
1.08876e-10
9.40169e-12
7.21889e-11
2.77856e-10
-2.65592e-10
8.0473e-12
2.83959e-10
-3.5011e-10
-8.83487e-10
-4.13007e-10
4.06906e-11
7.55091e-11
5.99522e-11
5.35154e-12
2.67162e-10
-4.24721e-10
-5.21085e-10
6.43468e-10
-3.28672e-10
3.69062e-11
-2.09562e-12
-4.09544e-11
-7.7402e-12
-8.03607e-12
6.35597e-12
1.08937e-10
-4.58324e-11
-5.27315e-10
-3.51111e-10
2.3122e-11
-2.73437e-10
-4.46294e-10
-1.45844e-10
5.20311e-10
3.35272e-10
-4.66828e-12
1.69791e-10
1.49143e-13
-1.23449e-10
-1.27784e-10
-1.34662e-11
-1.46385e-11
-6.52158e-11
6.03823e-10
5.04687e-10
-2.7728e-10
2.92601e-10
-5.16123e-10
-9.57402e-10
-2.5679e-10
3.89823e-11
8.12271e-11
5.25887e-11
4.44286e-13
4.59263e-10
1.16473e-09
7.17164e-10
5.59252e-10
-5.83378e-10
-7.09262e-11
-3.58815e-11
-5.77783e-11
-1.68338e-11
-1.42806e-11
1.56535e-11
1.76314e-10
-1.83596e-12
-7.00082e-10
-7.05389e-10
-5.98954e-11
-5.4087e-11
-3.0826e-10
-2.27075e-10
1.54426e-10
-7.8516e-11
-1.33079e-10
2.42149e-11
-4.87919e-12
1.17255e-10
4.51622e-11
-8.38899e-11
4.99214e-12
-4.69198e-11
3.32032e-10
1.25278e-09
2.74709e-10
-1.52555e-11
-4.32206e-10
-1.06489e-09
-5.48703e-10
-1.52553e-10
5.4413e-11
6.69471e-11
9.87973e-12
6.57238e-10
1.93946e-09
1.43298e-09
2.45236e-10
-5.69386e-12
1.25937e-10
-5.26439e-11
-3.19709e-11
-1.40302e-11
-2.05237e-11
2.54777e-11
2.39197e-10
3.73769e-11
-8.55743e-10
-8.89921e-10
-1.41697e-10
3.10148e-11
-1.45226e-10
-1.57206e-10
-1.04014e-10
-5.7845e-10
-4.58606e-10
-6.1256e-12
-6.41475e-11
3.82716e-10
2.43007e-10
-5.25102e-11
-8.62059e-12
3.07898e-12
1.27829e-10
1.10877e-09
1.20693e-09
-6.16723e-11
-1.47004e-10
-1.27386e-09
-1.32378e-09
-5.26116e-10
1.21661e-10
1.0743e-10
1.78141e-11
5.27405e-10
1.77701e-09
1.18211e-09
-1.39256e-10
5.26699e-10
6.3075e-11
5.16091e-12
-4.47416e-12
-1.65261e-11
-3.15211e-11
2.69502e-11
2.70606e-10
1.41823e-10
-9.97473e-10
-1.22143e-09
-2.48481e-10
4.32109e-11
-6.1162e-11
-8.19658e-11
-1.05266e-10
-5.40647e-10
-6.95789e-10
7.94452e-11
-9.64343e-11
2.83813e-10
1.39333e-10
-2.71077e-11
-8.47054e-12
-3.76602e-12
9.69188e-11
9.62592e-10
1.83406e-09
2.14e-10
6.92054e-12
-1.24531e-09
-1.80776e-09
-5.50795e-10
3.20234e-10
1.63537e-10
4.01707e-12
1.29234e-11
6.22037e-10
3.93606e-10
-1.52992e-10
2.25999e-10
8.27679e-12
6.81923e-12
-1.57995e-11
-2.92658e-11
-4.98246e-11
-3.89729e-12
1.51427e-10
2.13559e-10
-7.57597e-10
-1.6626e-09
-6.14024e-10
1.61219e-11
-2.59497e-11
-3.3788e-11
-1.14084e-10
-3.70902e-10
-3.2414e-10
5.34104e-11
-1.47875e-11
4.24949e-11
1.09173e-11
-4.4834e-12
1.57303e-13
3.83413e-12
2.02303e-11
8.00913e-10
2.37151e-09
7.50074e-10
-3.14206e-11
-7.07771e-10
-1.44905e-09
-2.18524e-10
4.91295e-10
2.31045e-10
-2.69884e-13
-3.38416e-10
-7.37849e-10
-2.40562e-10
-4.74894e-11
8.64613e-11
4.26927e-11
2.25265e-12
-3.29413e-11
-4.54636e-11
-5.97302e-11
-4.5167e-11
1.00986e-12
4.05346e-11
-2.27925e-10
-1.55458e-09
-1.21399e-09
-1.35719e-10
-4.89108e-12
-2.15839e-11
-1.31527e-10
-2.48208e-10
-7.66262e-11
2.53507e-11
2.3673e-11
9.0581e-12
-1.33197e-12
2.14586e-13
3.24771e-14
1.56497e-14
1.71502e-13
4.01547e-10
2.30681e-09
1.26615e-09
-1.38534e-10
-1.32728e-10
-6.73774e-10
6.71962e-11
5.43324e-10
2.56811e-10
3.78502e-12
-2.68932e-10
-1.3765e-09
-8.61414e-10
-1.3049e-10
9.77344e-11
1.38484e-11
8.08816e-11
1.84662e-10
4.74199e-11
-6.3692e-11
-4.97391e-11
2.55023e-11
8.79948e-12
-1.285e-11
-8.26376e-10
-1.53044e-09
-4.59374e-10
-7.04854e-12
-1.8819e-11
-1.0768e-10
-1.60707e-10
-2.86962e-11
5.19822e-11
6.11758e-11
4.61607e-11
3.43963e-11
3.07694e-12
1.39028e-12
1.26051e-12
-1.37444e-13
1.98063e-10
1.62468e-09
1.33178e-09
-9.77956e-11
3.28821e-11
-2.7701e-10
6.7646e-11
3.89143e-10
1.66128e-10
-3.64792e-12
-8.20231e-11
-9.88777e-10
-9.92778e-10
-1.39608e-10
-1.22918e-11
2.33443e-10
7.91858e-10
4.89386e-10
3.5661e-11
-1.28288e-11
3.09589e-12
-1.12702e-11
-1.53518e-11
5.53364e-12
-2.66169e-10
-1.31709e-09
-8.78764e-10
-9.08374e-11
-3.78203e-12
-7.92741e-11
-7.94699e-11
-1.36566e-11
8.63389e-12
-1.08851e-11
5.22915e-11
1.04003e-10
2.50323e-11
7.25846e-13
9.6026e-12
1.01807e-12
1.80948e-10
1.19039e-09
1.2646e-09
3.32433e-11
-4.73482e-12
-4.12888e-10
-3.19156e-10
1.09924e-10
1.03456e-10
-7.67962e-13
-5.76076e-11
-3.90868e-10
-3.3269e-10
-7.82757e-12
1.45249e-10
1.03399e-09
9.98897e-10
1.67202e-10
-2.46856e-11
9.22476e-11
9.22698e-11
-3.92856e-11
3.29257e-11
-4.0819e-13
-6.36303e-11
-7.48333e-10
-1.16486e-09
-3.74481e-10
-7.28133e-12
-2.26256e-11
-6.06052e-12
-4.42041e-13
-1.75278e-11
-4.7751e-11
1.83759e-11
1.04901e-10
3.90257e-11
-9.41501e-13
2.69063e-11
-3.94678e-12
1.84651e-10
8.72669e-10
7.76679e-10
-1.682e-11
-5.04697e-11
-6.85558e-10
-4.98959e-10
7.70898e-11
8.36532e-11
-8.7679e-13
-3.238e-11
-5.47882e-11
9.83547e-11
-4.1434e-11
2.45877e-10
7.21612e-10
1.92907e-10
-5.26821e-11
-3.80409e-11
5.25375e-11
1.62369e-10
6.27672e-11
-1.80702e-10
-1.2498e-10
1.59046e-12
-1.70237e-10
-5.93746e-10
-5.23783e-10
-1.30543e-10
8.4295e-12
-2.85274e-11
-5.806e-13
-2.65555e-11
-1.16184e-10
-3.99324e-11
7.12921e-11
3.81818e-12
1.9976e-11
7.88324e-11
-4.27408e-11
1.05004e-10
4.52496e-10
1.7115e-10
-1.59656e-11
-7.57157e-11
-3.52442e-10
-1.09014e-10
5.44802e-11
2.59114e-11
-1.3277e-12
-3.48757e-12
3.95292e-11
5.01601e-12
-8.89597e-11
6.05369e-11
3.61619e-12
-1.74264e-11
4.23192e-12
5.0077e-12
1.07855e-12
-7.02016e-12
5.89513e-11
-7.37017e-10
-1.51382e-09
-4.60126e-10
5.78235e-11
-9.83519e-11
-1.51829e-10
-1.38394e-10
-6.7349e-11
-1.45977e-10
-1.22746e-10
-7.16563e-12
-3.69493e-11
-2.05516e-11
3.0979e-11
-8.17115e-13
-1.29793e-12
-6.27779e-11
-2.66484e-10
8.65248e-13
2.74593e-10
3.11659e-11
2.10228e-11
2.66705e-11
-1.55534e-11
-6.25682e-12
7.92272e-12
8.93485e-12
-2.05868e-12
-9.08382e-12
-1.3611e-12
-2.47111e-12
-1.65261e-11
9.74599e-13
-2.169e-14
-2.61956e-11
-6.37142e-12
8.7014e-11
-4.47919e-11
-2.18318e-10
-6.17142e-12
-9.96651e-10
-2.72048e-09
-1.54179e-09
-7.46822e-11
-5.09266e-12
1.59872e-10
1.75501e-10
-1.6012e-11
-6.26095e-11
-9.23709e-11
-5.27114e-11
1.13355e-11
-6.01316e-12
-2.68068e-11
1.35237e-11
2.36106e-11
-1.31806e-10
-4.29316e-10
-1.9133e-10
3.25334e-10
9.4961e-11
-1.51513e-10
-7.64546e-11
1.82983e-12
-9.7851e-12
-1.81792e-11
-1.39783e-12
-4.33451e-12
-9.25105e-12
2.15355e-12
-2.75254e-12
-2.74281e-13
6.65938e-12
-1.60266e-11
-1.06848e-11
6.3707e-11
7.71792e-11
-1.1178e-10
-2.38995e-10
3.57872e-11
-4.66016e-10
-1.99157e-09
-1.40046e-09
-1.15258e-10
1.15325e-11
2.68248e-10
3.28064e-10
8.37567e-11
7.0563e-12
4.8703e-11
8.20405e-12
-1.08099e-13
-2.39028e-11
-3.56071e-11
6.29429e-13
6.09759e-14
-2.75632e-11
-2.07969e-10
-1.44144e-10
1.05784e-10
4.27454e-11
-1.05768e-10
-1.96597e-10
-1.45907e-11
5.08197e-11
1.08857e-11
-6.85552e-13
-2.48103e-12
3.60483e-12
1.34282e-11
-7.94604e-13
4.3424e-12
9.48215e-12
-3.55349e-11
-5.17843e-11
2.9601e-11
1.0285e-10
5.97873e-11
-1.188e-11
1.13455e-11
-1.15887e-10
-6.19319e-10
-7.0185e-10
-7.84886e-11
7.93602e-12
7.26566e-11
1.5292e-10
3.73032e-11
-8.43632e-12
1.54471e-12
-1.45261e-13
-2.14796e-13
4.92071e-13
3.15296e-11
3.19616e-11
-6.85949e-12
6.91471e-12
-4.43068e-11
6.59893e-11
9.41352e-11
-2.08379e-11
-1.72603e-14
-1.83764e-11
-4.07573e-12
-5.03983e-11
-2.02245e-11
6.02179e-12
5.41175e-12
1.66337e-12
3.49748e-13
-4.84287e-12
-6.1245e-11
-1.81898e-10
-1.83027e-10
-3.23926e-11
1.35278e-10
2.30849e-10
1.49672e-10
1.56166e-11
-3.16249e-12
-7.09073e-11
-8.84396e-11
-1.62326e-11
1.44558e-11
-2.12633e-12
5.79882e-11
1.04384e-10
3.90866e-11
-5.32783e-13
-6.54911e-13
9.80773e-13
-4.0354e-13
-1.91803e-11
-4.98412e-11
-1.79848e-11
6.63752e-11
-8.52091e-13
-2.66774e-10
-2.02142e-10
1.15026e-10
1.03448e-10
1.54327e-11
2.15755e-13
-6.37998e-14
1.84042e-12
-9.45043e-12
-4.63197e-11
-6.5538e-11
-5.14459e-11
-3.65739e-11
-2.89891e-11
-1.30225e-11
6.28617e-12
1.01418e-11
-7.58183e-13
5.25762e-11
1.44059e-10
7.48376e-11
-3.3235e-13
-2.22549e-11
-2.28298e-10
-1.60817e-10
6.4384e-11
2.68121e-11
1.93522e-11
1.13277e-10
1.06222e-10
2.91648e-11
3.35386e-11
-3.31903e-12
3.90487e-12
-8.03707e-14
4.66831e-13
-3.89538e-11
1.3646e-11
1.2204e-10
4.86495e-11
-8.12564e-11
-1.0719e-10
-4.30999e-11
3.1275e-12
1.18292e-12
-4.61281e-12
-5.08858e-13
6.23982e-12
3.45659e-12
-5.85232e-13
-1.52693e-12
-3.40286e-11
-1.02012e-10
-9.93175e-11
-1.4349e-11
1.28496e-11
6.97228e-13
1.67988e-13
1.59444e-11
2.43075e-11
-4.4219e-11
2.01914e-11
6.50769e-11
-1.75361e-10
-1.97116e-10
4.86892e-11
3.04917e-11
-4.83862e-11
1.45284e-10
3.15429e-10
2.07243e-10
-2.16602e-14
4.28971e-14
1.35458e-13
-1.16143e-13
-2.35631e-13
1.26273e-13
1.87715e-13
-1.15071e-13
-3.42742e-14
4.26876e-13
1.04033e-12
1.47651e-12
7.54634e-13
-6.0789e-13
3.50899e-13
7.09655e-13
6.02283e-13
8.11136e-13
1.47063e-12
1.19431e-13
9.78409e-13
2.56873e-13
5.89226e-14
-1.0992e-12
-3.80748e-12
-3.77687e-12
-2.91477e-12
-2.29703e-12
-9.56256e-13
3.80495e-13
9.44108e-13
9.49207e-13
1.96139e-13
-5.02356e-13
2.33818e-13
-6.28266e-13
-1.81027e-13
6.78844e-14
-1.28781e-14
3.7068e-13
2.97737e-12
4.22173e-12
1.49456e-12
-7.77682e-13
6.74535e-12
7.31333e-12
2.30174e-12
-1.61398e-12
-6.2461e-13
8.40282e-14
6.57116e-12
2.32443e-11
3.87015e-11
5.49482e-11
1.11854e-10
1.88413e-10
2.62648e-10
3.04386e-10
2.17127e-10
-1.34419e-11
5.21953e-11
3.82037e-11
1.89569e-12
-2.81553e-11
-1.12091e-10
-1.31355e-10
-7.87036e-11
-2.62903e-11
9.36596e-12
2.51644e-11
2.61604e-11
1.80879e-11
1.02749e-11
2.94457e-12
-1.01827e-12
-3.36329e-12
1.16024e-12
1.48644e-11
7.84672e-13
5.06746e-13
1.14666e-11
1.44885e-11
5.804e-12
9.1358e-13
1.48934e-11
1.20877e-11
2.18451e-12
-3.33416e-13
7.2525e-12
7.11101e-12
-6.61085e-14
9.26165e-12
3.73824e-11
7.48088e-11
1.31547e-10
1.98566e-10
2.61506e-10
3.05759e-10
2.42573e-10
-2.91618e-11
4.48645e-11
9.23453e-11
-2.12009e-11
-1.14077e-11
-1.37004e-10
-1.97257e-10
-1.04611e-10
-2.00178e-11
3.07661e-12
-2.23317e-11
-4.94567e-11
-4.34684e-11
-2.16144e-11
-1.77432e-12
-1.19942e-12
1.14951e-13
6.52911e-13
4.07486e-11
1.59507e-11
1.11761e-12
3.52417e-12
1.18636e-11
4.55413e-12
1.24218e-12
2.10496e-11
2.03385e-11
5.67648e-12
7.01835e-14
7.9465e-12
1.06188e-11
2.64163e-12
1.44662e-12
2.09201e-11
4.53863e-11
6.56283e-11
8.59007e-11
1.00333e-10
1.16804e-10
1.25427e-10
6.67042e-12
3.90284e-11
-1.86667e-10
-3.67474e-10
3.3108e-11
-4.65364e-11
-1.30578e-10
-5.51136e-11
-2.27909e-12
-1.00189e-11
-6.06727e-11
-1.19981e-10
-1.00394e-10
-3.24569e-11
6.07591e-12
-3.13449e-12
-5.38142e-12
-1.33205e-12
7.61311e-11
9.52741e-11
-2.18883e-11
-5.25338e-11
-1.79885e-12
5.33865e-13
5.86216e-13
2.59326e-11
3.28116e-11
1.16479e-11
-2.92933e-12
3.89991e-12
1.24089e-11
7.02621e-12
-9.81632e-13
1.07168e-11
3.31407e-11
5.08983e-11
6.47558e-11
4.89245e-11
3.88636e-11
1.00325e-10
6.74974e-11
1.8324e-11
-4.23092e-10
-1.25031e-09
-1.72049e-11
1.18708e-11
-8.86544e-11
-5.15631e-11
-1.04502e-12
5.33689e-13
-2.41647e-11
-1.04116e-10
-1.09491e-10
-3.29271e-11
6.61004e-12
-3.56279e-11
-6.4897e-11
-2.96228e-11
9.23273e-11
2.75132e-10
-4.59818e-11
-2.44758e-10
-5.64518e-11
3.55155e-12
-3.26224e-13
3.16108e-11
5.00473e-11
2.25561e-11
-5.93366e-12
-9.43364e-12
1.96895e-11
2.56096e-11
5.76534e-13
-7.84271e-12
3.08955e-12
2.49116e-11
4.63912e-11
3.88551e-12
-4.16028e-11
7.5883e-11
1.62387e-10
-1.20585e-11
-1.91894e-10
-2.00376e-09
-3.67826e-10
5.43004e-11
-2.21567e-11
-6.28461e-11
-5.18752e-12
-3.32245e-12
-2.85137e-11
-1.17191e-10
-1.33622e-10
-4.27221e-11
1.2954e-11
-1.86091e-11
-1.08199e-10
-9.63288e-11
6.50282e-11
4.52584e-10
9.48268e-11
-5.03623e-10
-3.18513e-10
1.01317e-11
-9.02399e-14
3.90295e-11
7.73555e-11
4.13622e-11
1.08091e-12
-3.32784e-11
2.54389e-12
5.44827e-11
1.15129e-11
-3.24895e-11
-3.40517e-11
-6.08653e-12
1.19146e-11
-5.5122e-11
-1.1709e-10
6.57978e-11
2.2724e-10
-2.72521e-11
-9.3432e-11
-2.27052e-09
-9.09028e-10
1.35053e-10
7.45419e-11
2.66264e-11
-1.80606e-12
-8.46723e-12
-6.37162e-11
-1.4891e-10
-1.2109e-10
-1.7356e-11
4.56144e-12
8.38066e-12
-6.9822e-11
-1.61772e-10
-3.08729e-11
4.72974e-10
4.60503e-10
-4.30024e-10
-8.99231e-10
-6.19024e-11
9.96253e-12
3.54168e-11
1.04423e-10
6.89066e-11
1.88449e-11
-1.56511e-11
-3.93703e-11
2.36211e-11
1.33371e-11
-8.65833e-11
-9.35303e-11
-3.12108e-11
-1.64363e-12
-8.61724e-11
-1.6312e-10
1.26239e-10
2.54788e-10
-2.06824e-11
1.13809e-11
-1.99136e-09
-9.99045e-10
2.14493e-10
8.09589e-11
1.13103e-10
1.60032e-11
-1.63747e-11
-9.02286e-11
-1.45647e-10
-3.41242e-11
1.97961e-11
-2.10061e-10
-1.65341e-10
2.31919e-13
-1.23647e-10
-1.45851e-10
3.01248e-10
7.03483e-10
-9.54564e-11
-1.28861e-09
-3.64887e-10
2.58189e-11
2.56137e-11
1.18395e-10
7.82699e-11
1.92124e-11
8.46695e-12
-1.63588e-11
-8.4052e-11
-1.26447e-10
-2.65403e-10
-2.50753e-10
-6.60565e-11
9.33563e-12
-7.24268e-11
-1.68622e-10
1.88377e-10
2.00231e-10
1.0274e-11
4.18713e-10
-9.60846e-10
-5.7276e-10
2.21435e-10
2.74357e-11
9.12117e-11