/*--------------------------------*- C++ -*----------------------------------*\
| =========                 |                                                 |
| \\      /  F ield         | OpenFOAM: The Open Source CFD Toolbox           |
|  \\    /   O peration     | Version:  5.0                                   |
|   \\  /    A nd           | Web:      www.OpenFOAM.org                      |
|    \\/     M anipulation  |                                                 |
\*---------------------------------------------------------------------------*/
FoamFile
{
    version     2.0;
    format      ascii;
    class       volScalarField;
    location    "50.4676134421789371";
    object      Vdiffuu;
}
// * * * * * * * * * * * * * * * * * * * * * * * * * * * * * * * * * * * * * //

dimensions      [0 2 -3 0 0 0 0];

internalField   nonuniform List<scalar> 
60000
(
1.73909e-08
-9.5441e-09
-1.74288e-08
-5.98396e-09
5.67897e-09
1.48635e-09
1.09579e-09
4.38461e-09
1.85633e-08
4.86656e-08
6.13434e-08
3.69855e-08
1.1786e-08
4.97666e-09
7.28456e-09
2.21622e-08
3.81304e-08
5.46589e-08
6.05893e-08
2.6668e-08
-5.38429e-08
-9.33373e-08
-1.02868e-09
1.70333e-07
3.49346e-07
5.20877e-07
6.43781e-07
6.24797e-07
3.8305e-07
1.3207e-07
4.68236e-08
4.68181e-08
1.17565e-07
1.89519e-07
1.19157e-07
1.8736e-09
1.10699e-08
-3.77766e-09
2.95994e-08
4.41778e-08
3.50598e-08
1.51627e-08
-2.42104e-08
-4.17995e-08
-1.7189e-08
5.50632e-09
-9.83441e-10
-8.64902e-09
-3.11952e-08
-4.63349e-08
-2.34891e-08
8.77265e-09
9.35194e-09
1.67042e-09
-1.25229e-09
-1.46204e-09
-3.18265e-10
-3.03174e-08
-8.14264e-08
-1.30467e-07
-1.99553e-07
-3.28345e-07
-4.61725e-07
-6.50449e-07
-9.79062e-07
-1.36273e-06
-1.52363e-06
-1.21455e-06
-6.0001e-07
-1.91282e-07
-1.02796e-07
-1.70088e-07
-2.99712e-07
-3.01133e-07
-1.00037e-07
1.6237e-08
-6.3861e-09
5.72263e-10
-3.7322e-08
1.84157e-09
-5.99329e-08
-1.82469e-08
1.30698e-08
2.20133e-08
9.3432e-09
1.17143e-08
1.69448e-08
5.48967e-09
-8.1399e-09
-4.14966e-08
-6.08774e-08
-5.28502e-08
-2.34936e-08
1.19991e-09
3.59839e-10
-2.05361e-08
-3.24123e-08
-2.97901e-08
2.17064e-09
4.3137e-08
6.50847e-08
4.94172e-08
6.47458e-09
-1.59423e-08
-1.37317e-08
5.0189e-09
9.21784e-09
-3.27367e-08
-7.52499e-08
-3.66062e-08
3.49653e-08
7.04693e-08
4.48848e-08
-4.58576e-08
-1.09064e-07
-4.4334e-08
3.52071e-08
4.58707e-08
-1.77524e-08
-7.61882e-08
6.65213e-09
4.6348e-09
3.05653e-09
8.09791e-09
9.98497e-09
8.58681e-09
1.9213e-08
2.4949e-08
2.40982e-08
1.78282e-08
1.09278e-08
2.24995e-08
1.56627e-08
1.12174e-08
1.8678e-08
1.63508e-08
1.67596e-08
2.59546e-08
4.2254e-08
8.45136e-08
8.9887e-08
7.95967e-08
8.48393e-08
1.28849e-07
1.85786e-07
2.45642e-07
2.8624e-07
2.6581e-07
1.81292e-07
7.88054e-08
3.51033e-08
6.64729e-08
1.19635e-07
1.34572e-07
9.01151e-08
3.68862e-08
1.25551e-08
3.40162e-08
6.24399e-08
1.77074e-08
1.09182e-09
7.31599e-09
-4.35764e-10
-9.95627e-09
-1.39531e-08
-2.13134e-08
-1.92514e-08
1.64717e-09
1.92926e-08
2.70331e-08
2.60532e-09
-1.14889e-09
1.0005e-08
-1.16539e-08
-8.4918e-09
1.57771e-08
2.57073e-08
2.09197e-08
-1.09399e-08
-5.98411e-09
5.59334e-08
4.56063e-08
2.30599e-08
2.73459e-08
2.53145e-08
3.75035e-08
4.70019e-08
3.64305e-08
2.52527e-08
7.30554e-09
-5.14152e-08
-8.12927e-08
-4.60833e-08
1.14856e-08
3.65931e-08
1.15426e-08
-2.87556e-08
-4.87569e-08
8.97661e-10
2.8238e-08
3.98646e-09
-1.00246e-08
3.81692e-09
4.98708e-09
-1.22227e-09
-1.23719e-08
-2.60558e-08
-2.71987e-08
-5.27451e-09
2.72293e-08
3.21303e-08
-1.14131e-08
-7.28435e-09
8.95819e-09
9.28672e-09
2.56807e-08
1.44813e-08
6.85794e-09
2.09196e-09
-5.36331e-08
1.27757e-08
6.43534e-08
4.71415e-09
-4.72731e-08
-2.80671e-08
9.85366e-09
1.46022e-08
3.97969e-09
-9.85877e-09
7.66708e-09
4.89085e-08
2.92293e-08
-2.47072e-08
-4.45631e-08
-1.07226e-08
2.62775e-08
3.11961e-08
1.58486e-08
-4.89349e-09
1.33195e-08
1.34668e-08
-2.79419e-10
-5.4227e-09
4.1082e-09
1.22929e-08
1.41174e-08
9.93093e-10
-1.93919e-08
-3.32611e-08
-1.2126e-08
4.3914e-08
4.01684e-08
-1.64271e-09
4.62482e-09
2.55674e-08
3.17201e-08
-8.79778e-09
-1.34589e-08
1.08189e-08
-4.78729e-08
-9.86957e-08
4.48568e-08
3.70094e-08
-2.89055e-08
4.79389e-09
1.35731e-08
8.83732e-09
3.92136e-09
-2.0133e-09
-1.33228e-08
-4.13062e-09
4.33381e-08
5.30098e-08
-5.57912e-09
-5.74403e-08
-3.20443e-08
1.72808e-08
3.17063e-08
2.00208e-08
6.93755e-09
1.07076e-08
1.16368e-08
6.12187e-09
2.27869e-09
3.50483e-09
1.38996e-08
2.51915e-08
1.7539e-08
-9.82626e-09
-4.95577e-08
-2.25079e-08
4.99326e-08
2.58148e-08
4.77326e-09
1.70501e-08
-1.07308e-08
-3.40338e-08
-2.14593e-08
1.52906e-09
5.1404e-09
-1.28623e-07
-4.97375e-08
6.64263e-08
2.83682e-08
1.24913e-08
5.78349e-09
2.42038e-09
-7.73441e-10
2.29543e-11
-2.12585e-10
-1.04116e-08
-1.76284e-08
1.52655e-08
4.63821e-08
2.4473e-09
-5.38657e-08
-3.133e-08
1.30165e-08
2.304e-08
1.58639e-08
1.46347e-08
1.05998e-08
5.60243e-09
3.0114e-09
4.72322e-09
1.55544e-09
9.16113e-10
1.10942e-08
2.28468e-08
-4.40213e-09
-8.34337e-08
-2.96775e-08
3.83676e-08
9.59312e-09
-1.29885e-08
-4.34096e-08
-3.01569e-08
-5.70231e-09
-3.52513e-09
2.44809e-08
-2.83471e-08
-1.11109e-07
2.34078e-08
4.12492e-08
1.0831e-08
4.24458e-09
-1.00898e-09
-4.00214e-09
-2.53556e-09
-6.39508e-10
-6.13709e-10
-7.79497e-09
-1.89274e-08
-1.32409e-09
2.99107e-08
6.69919e-09
-3.24297e-08
-1.95792e-08
6.08652e-09
1.34365e-08
1.23351e-08
1.27519e-08
-2.48564e-09
-2.79703e-09
6.95574e-09
8.02172e-09
5.6398e-10
-8.58128e-09
-2.78914e-09
2.6754e-08
-1.73701e-08
-1.05394e-07
4.93571e-09
2.42433e-08
-3.32412e-08
-3.64293e-08
-2.3545e-09
8.22514e-09
1.2442e-09
7.48266e-09
4.29509e-08
-4.49127e-08
-4.5079e-08
8.87532e-09
8.40503e-09
2.31106e-09
-5.57804e-09
-6.07074e-09
-3.63055e-09
-2.8068e-09
-2.47067e-09
-9.62741e-10
-1.84609e-09
-7.44374e-09
-7.65414e-10
1.69448e-08
9.18734e-09
-1.31921e-08
-1.24738e-08
1.00196e-09
7.43363e-09
1.70768e-08
5.08063e-09
1.19344e-09
8.65616e-09
1.33852e-08
1.065e-08
3.27364e-09
-4.79668e-09
2.71984e-09
3.11241e-08
-4.23381e-08
-6.09188e-08
3.13915e-08
-3.73279e-09
-1.22868e-08
7.98932e-12
4.10253e-09
2.95365e-09
3.95629e-10
2.29672e-08
2.78723e-08
-4.37227e-08
-3.33778e-08
6.68852e-10
2.3705e-09
-3.90014e-09
-3.34891e-09
-1.86219e-09
-2.23891e-09
-5.28907e-09
-6.72191e-09
-2.783e-10
4.63549e-09
2.49163e-09
2.28484e-09
7.31052e-09
5.31634e-09
-2.1166e-09
-1.47291e-09
5.23043e-09
1.99696e-08
1.51322e-08
3.03185e-09
8.81371e-09
1.36724e-08
9.21086e-09
4.9117e-09
1.7174e-09
-1.85836e-09
1.24321e-08
1.80077e-08
-4.39727e-08
-4.83765e-09
1.93416e-08
-4.7608e-09
-7.38448e-09
5.75747e-10
3.12775e-09
8.83197e-10
4.31825e-09
2.3881e-08
6.22194e-10
-1.90017e-08
3.82237e-10
3.02163e-09
2.27537e-09
1.45034e-09
9.94755e-10
9.25222e-11
-4.34459e-09
-1.22165e-08
-1.03874e-08
2.78145e-09
7.21377e-09
1.23839e-09
-1.64692e-09
2.1714e-09
3.68733e-09
2.16416e-09
1.81189e-09
1.04044e-08
1.20691e-08
3.01688e-09
5.83089e-09
5.41823e-09
3.00201e-10
-4.79158e-11
1.28135e-09
5.84783e-10
3.18029e-09
1.34355e-08
-9.05166e-09
-1.66863e-08
1.37527e-08
3.79734e-09
-1.7197e-09
1.77227e-09
2.99102e-09
1.67421e-09
1.75122e-09
8.42449e-09
1.66277e-08
1.21364e-08
4.89033e-09
4.72362e-09
3.50546e-09
2.47501e-09
2.14701e-09
1.70535e-09
1.65565e-10
-7.02008e-09
-1.75632e-08
-8.63499e-09
5.86571e-09
4.68635e-09
-5.96546e-10
-1.13239e-09
1.85232e-10
9.65062e-10
8.36603e-10
1.12014e-09
1.30384e-09
2.22831e-09
2.16717e-09
-2.92725e-09
-6.86876e-09
-3.71539e-09
4.90721e-10
2.05204e-10
1.42272e-09
9.272e-09
-1.8608e-09
-1.89924e-08
2.10416e-09
8.29539e-09
3.47351e-09
1.10677e-09
-1.7311e-09
-2.93171e-10
1.35989e-09
4.25265e-09
1.2874e-08
1.45421e-08
2.68287e-09
-6.67581e-09
-1.93249e-09
1.85426e-09
1.57308e-09
1.4371e-09
3.07312e-09
4.50523e-09
-5.0206e-09
-1.64459e-08
-2.76082e-09
6.41059e-09
2.75029e-09
5.18109e-10
-3.14323e-10
-3.85428e-10
6.17768e-10
7.04406e-10
1.11913e-09
2.06132e-09
1.06137e-09
-1.03906e-09
-2.46418e-09
-2.22899e-09
-1.6853e-10
5.15479e-10
2.64338e-09
8.80801e-09
4.11485e-09
-1.86424e-08
-1.28073e-08
2.97886e-09
2.72805e-09
-5.02712e-09
-7.03768e-09
-3.28901e-09
1.59542e-09
9.05797e-11
-4.96043e-09
-8.3191e-09
-7.18577e-09
5.73298e-10
2.54461e-09
1.5751e-09
1.93251e-09
2.50399e-09
3.28954e-09
6.76324e-09
7.76517e-09
-7.03869e-09
-1.25106e-08
4.13524e-09
5.29945e-09
3.41448e-10
2.62416e-10
6.87405e-10
5.0987e-10
1.42176e-10
1.54741e-10
8.37764e-11
3.45455e-10
1.33439e-09
1.63571e-09
1.11494e-09
2.58304e-10
4.83981e-10
4.14726e-09
9.03023e-09
5.27739e-09
-9.63753e-09
-9.54477e-09
2.69099e-09
1.87821e-10
-2.90004e-09
-5.51617e-10
-7.18768e-10
-9.42869e-10
4.47141e-09
3.63836e-09
-9.6171e-10
3.28685e-09
5.29989e-09
5.20566e-09
8.57196e-09
9.33857e-09
5.65512e-09
2.6609e-09
3.31789e-09
5.67713e-09
7.28859e-10
-1.3617e-08
-7.69449e-09
6.32955e-09
3.84848e-09
2.2749e-10
3.06832e-10
3.94328e-10
2.36376e-10
-5.20114e-10
-7.5185e-10
2.13916e-10
4.38126e-10
2.1319e-10
7.294e-10
8.23263e-10
2.00782e-10
2.72488e-09
7.32308e-09
3.32272e-09
-4.19479e-09
-9.72631e-10
3.63085e-09
1.54976e-09
1.39971e-09
1.75753e-09
9.49083e-10
4.9405e-10
2.48629e-10
4.2175e-09
8.12354e-09
6.4141e-09
6.48391e-09
9.49612e-09
1.09004e-09
-1.01311e-08
-9.01541e-09
-2.67214e-09
1.28079e-09
3.79105e-09
3.12419e-09
-5.3105e-09
-1.33987e-08
-3.38248e-09
5.50457e-09
3.19288e-09
4.93487e-10
3.56364e-10
6.43078e-10
2.52309e-09
5.95976e-10
-6.41889e-09
-5.16238e-09
1.09108e-09
2.50161e-09
1.37397e-09
4.33063e-10
2.59799e-09
4.93905e-09
2.77466e-10
-3.31693e-09
1.07951e-09
3.72585e-09
8.84664e-10
-1.12873e-09
2.29623e-11
4.03163e-10
4.45563e-10
-1.82841e-10
-4.78997e-09
-1.13813e-08
-7.74298e-09
9.70165e-09
3.15267e-09
-2.31343e-08
-1.69163e-08
2.66638e-09
3.48777e-09
-8.30573e-10
1.72736e-09
8.75377e-09
7.31687e-09
-5.05753e-09
-1.34768e-08
-6.82251e-09
9.41182e-10
1.90425e-09
3.14932e-09
3.78875e-09
-1.40509e-09
-9.3216e-09
-5.4108e-09
2.50804e-09
1.19834e-09
-1.73237e-09
-1.27184e-09
5.38075e-10
1.86769e-09
1.45029e-09
-2.13759e-09
-2.74528e-09
1.30277e-09
1.26875e-09
-2.1618e-09
-2.80203e-09
-1.58999e-10
8.23966e-10
1.59696e-10
1.85145e-09
2.36478e-09
5.59652e-09
8.10938e-09
-5.87309e-09
-1.30168e-08
5.90049e-09
1.224e-08
-4.90856e-11
-8.99796e-10
2.85184e-09
-4.93532e-09
-7.02951e-09
4.55389e-09
7.08593e-09
-9.98222e-10
-7.58248e-09
-5.59944e-09
-3.9155e-10
-4.97824e-10
5.36436e-09
6.65221e-09
2.10695e-09
1.19975e-09
8.51026e-10
1.01638e-09
1.96298e-09
1.67405e-09
1.09251e-09
6.69537e-10
-2.01069e-09
-4.34827e-09
-1.69095e-09
9.07224e-10
-6.14363e-10
-2.50604e-09
-2.08835e-09
6.29226e-11
1.1486e-09
3.80445e-10
-1.79484e-11
1.38209e-09
1.02828e-09
-2.29051e-09
-5.54447e-10
4.5595e-09
5.10803e-10
-5.74705e-09
-5.61351e-09
-4.35361e-09
-6.05882e-11
5.86676e-09
-2.57519e-09
-7.532e-09
5.36255e-10
3.55637e-09
1.83472e-09
-6.49619e-10
-2.34589e-09
1.10798e-09
1.2156e-09
3.19416e-09
4.0673e-09
1.69576e-09
1.04893e-10
-2.09246e-10
-8.41206e-10
-8.83939e-10
-2.85608e-10
2.11289e-10
1.3179e-09
2.03991e-09
1.2491e-09
5.08082e-10
6.37132e-10
8.53618e-11
-1.38512e-09
-2.40279e-09
-1.62448e-09
2.45525e-10
9.5018e-10
-5.9797e-11
-1.23065e-09
-9.84587e-10
3.64802e-11
2.60659e-10
8.79738e-10
2.50521e-09
2.91275e-09
4.84334e-10
-2.9823e-09
1.2642e-10
7.16523e-09
3.73628e-09
-6.62974e-10
5.04174e-10
1.81759e-09
2.16255e-09
1.77573e-09
-4.59687e-10
-1.00388e-09
8.15544e-11
6.32569e-10
2.85545e-10
4.10056e-10
7.65064e-10
1.12411e-10
-7.43471e-10
-1.71201e-10
8.73531e-10
1.03786e-09
3.96751e-10
2.99349e-10
8.12022e-10
1.53032e-09
2.38046e-09
2.04174e-09
7.78335e-10
5.87804e-10
1.06161e-09
5.63035e-11
-1.9488e-09
-2.29627e-09
-6.64837e-10
9.4956e-10
1.58591e-09
1.08123e-09
-5.67832e-10
-2.28746e-09
-3.03468e-09
-2.1882e-09
-2.63657e-10
1.44478e-09
1.6071e-09
2.15805e-10
-2.67558e-10
2.19444e-10
4.40145e-10
3.67854e-10
6.69086e-10
5.46838e-10
-1.97292e-10
-3.74404e-10
-4.9597e-11
3.88096e-10
4.27916e-10
-4.54906e-10
-2.75179e-10
2.02414e-09
2.40782e-09
-1.95537e-10
-1.1233e-09
3.4709e-10
-4.5275e-11
-2.66825e-09
-3.59323e-09
-2.15171e-09
-6.12956e-10
4.9745e-11
4.04809e-11
1.123e-10
8.53317e-10
1.28853e-09
5.76236e-10
-7.37688e-10
-1.7759e-09
-1.76719e-09
-9.07019e-10
-4.56003e-11
2.00959e-10
3.16222e-10
6.90526e-10
8.75425e-10
7.08512e-10
6.24e-10
7.21542e-10
6.78711e-10
3.1695e-10
2.37052e-10
3.34314e-10
5.50091e-10
5.8248e-10
3.62216e-10
4.40401e-10
6.30938e-10
-5.20473e-10
-3.69644e-09
-6.64577e-09
-5.28292e-09
-6.01196e-10
1.70044e-09
1.04631e-09
3.87144e-10
6.69284e-10
8.10429e-10
2.57195e-10
1.01811e-11
4.07382e-10
5.37082e-10
8.98824e-11
-4.90416e-10
-7.82906e-10
-5.98549e-10
-3.20339e-11
3.51697e-10
2.24819e-10
-5.4895e-11
-5.51043e-11
1.00066e-10
3.0357e-10
5.24647e-10
3.8849e-10
1.92253e-10
4.8086e-10
5.32739e-10
2.47569e-10
1.49206e-10
2.79728e-10
2.97661e-10
2.63879e-10
-2.6835e-10
-6.92805e-10
-9.21366e-11
9.52826e-10
4.91688e-10
-1.49434e-09
-2.51249e-09
-1.37512e-09
-3.38761e-10
-2.82403e-10
-5.51487e-10
-7.95966e-10
-7.62365e-10
-7.41461e-11
9.12751e-10
1.17659e-09
7.25701e-10
1.91882e-10
-1.52551e-10
-3.52991e-10
-4.48038e-10
-5.04587e-10
-2.94259e-10
3.7595e-11
5.63478e-11
-4.32137e-11
7.77566e-11
3.30381e-10
3.31435e-10
4.78671e-12
-2.06469e-10
2.68672e-11
2.89297e-10
1.89477e-10
-9.38843e-12
-1.79547e-10
-1.28087e-10
1.66193e-10
4.0987e-10
-1.3774e-09
-7.44626e-10
1.10157e-09
8.16326e-09
2.81043e-08
5.65545e-08
6.15664e-08
3.73422e-08
1.22931e-08
-3.90271e-11
2.54643e-09
7.93426e-09
1.00134e-08
2.63905e-08
7.98204e-08
1.65985e-07
2.57018e-07
3.28305e-07
3.55278e-07
2.52396e-07
6.37202e-08
-7.78299e-08
-1.02299e-07
7.23449e-08
2.87844e-07
4.36637e-07
4.62586e-07
3.69443e-07
2.53169e-07
1.86138e-07
1.93663e-07
2.85037e-07
3.95067e-07
4.12625e-07
1.91548e-07
-1.07508e-07
1.66585e-07
1.18873e-07
7.21254e-09
-1.02181e-09
3.03594e-09
1.38865e-09
5.71668e-10
-8.98479e-09
-4.65653e-08
-8.22829e-08
-6.82441e-08
-3.48871e-08
-2.31842e-08
-3.27832e-08
-5.49714e-08
-8.25727e-08
-1.25768e-07
-1.93965e-07
-2.83825e-07
-3.90316e-07
-5.01957e-07
-5.82833e-07
-5.80103e-07
-3.99771e-07
-1.90795e-07
-1.36462e-07
-3.0266e-07
-4.79505e-07
-5.92031e-07
-6.90556e-07
-6.77924e-07
-5.46095e-07
-4.44015e-07
-4.91327e-07
-7.05701e-07
-9.55214e-07
-1.00899e-06
-7.36632e-07
-1.96598e-07
-1.62864e-08
-3.60615e-07
2.76337e-08
3.65861e-08
6.0471e-10
-2.24016e-09
-1.20885e-09
-2.71263e-09
-6.65407e-09
-1.11628e-08
-2.64206e-08
-4.49999e-08
-3.69533e-08
-1.15231e-08
1.39529e-09
-6.67653e-09
-1.77913e-08
-2.13978e-08
-2.35035e-08
-3.4443e-08
-5.09227e-08
-6.32515e-08
-6.24069e-08
-6.12705e-08
-4.73616e-08
5.13396e-08
1.64555e-07
1.59304e-07
2.48483e-08
-6.01052e-08
-1.1555e-07
-1.36739e-07
-1.15296e-07
-6.9876e-08
-2.23702e-08
1.61491e-08
2.32634e-08
-1.82703e-08
-8.65165e-08
-1.37294e-07
3.82955e-08
1.55459e-07
1.81903e-09
7.81099e-08
8.20369e-09
-1.3526e-09
3.94887e-10
1.21801e-09
4.22214e-09
1.30706e-08
2.45557e-08
2.56767e-08
2.08906e-08
1.65339e-08
1.77289e-08
2.27646e-08
2.27584e-08
3.17536e-08
4.55943e-08
6.19571e-08
8.00498e-08
1.01156e-07
1.2577e-07
1.43208e-07
1.23788e-07
6.66065e-08
5.8246e-08
1.23167e-07
1.06507e-07
1.23285e-07
1.65342e-07
1.83678e-07
1.71395e-07
1.45118e-07
1.42807e-07
1.73281e-07
2.08396e-07
2.18412e-07
1.85107e-07
1.15663e-07
2.91004e-08
2.60492e-08
2.11086e-08
9.21156e-08
5.10256e-08
1.77927e-08
-2.31575e-10
2.03249e-09
4.80763e-09
9.99013e-09
1.39091e-08
1.33071e-08
1.03865e-08
5.7812e-09
-7.38453e-10
4.81463e-09
8.91699e-09
1.1361e-08
2.23397e-08
2.94705e-08
2.33694e-08
1.90043e-08
2.38226e-08
2.50192e-08
1.60131e-08
-3.95405e-08
-8.85011e-08
-9.74449e-10
4.14563e-08
1.76758e-08
2.12719e-08
2.87221e-08
3.00606e-08
2.21981e-08
1.34963e-08
2.34883e-08
4.15129e-08
4.52921e-08
3.22896e-08
1.04426e-08
-4.29312e-08
-1.47608e-07
-1.85981e-07
-4.46678e-08
8.14989e-08
6.05025e-08
2.41978e-09
6.97486e-11
4.59873e-09
7.85813e-09
1.14221e-08
9.8028e-09
2.70041e-09
1.21226e-08
8.40759e-09
3.97393e-10
3.2456e-09
8.68138e-10
2.22194e-09
-4.60624e-09
-2.1079e-08
-1.17661e-08
-1.43536e-09
-2.1918e-09
8.5846e-09
2.08134e-09
-5.53489e-08
-3.28801e-08
3.34293e-08
-1.43737e-08
-2.80519e-08
-1.23927e-08
-8.82137e-09
5.26518e-10
1.70733e-08
2.93431e-08
3.66815e-08
3.2351e-08
1.36442e-08
3.04428e-10
1.64491e-08
-2.8473e-09
-1.34866e-07
-1.69205e-07
8.06992e-09
5.12186e-08
3.58143e-08
-3.89229e-09
-3.08837e-09
2.85454e-09
1.11487e-08
1.87819e-08
4.04325e-09
-4.96399e-09
2.52125e-08
8.49366e-09
2.62485e-09
5.26609e-09
-1.12935e-09
-1.9205e-08
-2.53915e-08
1.40179e-09
6.07129e-09
-9.57505e-10
4.70812e-09
2.00968e-08
-4.39104e-08
-6.03583e-08
2.72145e-08
5.11568e-09
2.6407e-09
7.45123e-09
3.66272e-10
-7.71866e-09
-1.24755e-08
-1.05794e-08
1.51846e-09
2.49425e-08
3.29022e-08
6.2551e-09
-1.69049e-09
3.24255e-08
6.25321e-09
-1.08779e-07
-9.62877e-08
-3.51035e-08
6.42616e-08
1.59206e-08
-9.77517e-09
-1.07088e-08
9.01059e-11
1.55995e-08
2.20611e-08
-1.80552e-08
-4.32976e-09
3.50477e-08
2.96723e-09
3.62999e-09
-2.56566e-09
-2.36645e-08
-9.76678e-09
7.55497e-09
6.06211e-09
1.59677e-09
2.14661e-09
2.32364e-08
-2.32958e-08
-6.00053e-08
1.7961e-08
1.89334e-08
1.22377e-08
6.97592e-09
3.61913e-09
-6.21267e-10
-8.05854e-09
-1.89426e-08
-3.09822e-08
-3.10556e-08
-4.8511e-11
2.19138e-08
-2.62608e-09
1.9521e-09
3.55572e-08
-1.3116e-10
-8.46988e-08
-6.30075e-08
1.47e-08
4.47989e-08
5.55989e-10
-2.27517e-09
-1.43903e-08
-3.08151e-08
-3.39644e-09
1.33306e-08
-4.89179e-08
1.01479e-08
3.07425e-08
-1.51164e-08
-2.39614e-08
-2.31464e-08
1.8691e-09
1.29978e-08
5.58506e-09
1.6969e-09
2.19113e-09
1.67179e-08
1.28189e-09
-4.15676e-08
5.98453e-09
1.70168e-08
7.2577e-09
3.58958e-09
2.64862e-09
-1.18033e-09
-5.88026e-09
-1.10535e-08
-1.75111e-08
-2.535e-08
-2.59223e-08
-6.59936e-10
1.28415e-08
-3.05086e-09
1.15209e-08
3.3627e-08
2.37312e-09
-1.06547e-08
-6.11196e-08
5.93564e-09
9.31304e-09
-7.32923e-09
-2.75177e-08
-3.42086e-08
-2.63988e-08
6.71056e-09
-4.97848e-09
-5.8697e-08
3.33202e-08
1.13155e-08
-3.7213e-08
-1.60114e-08
1.43257e-08
1.20328e-08
4.2234e-09
8.98453e-10
1.4485e-09
7.36669e-09
1.38919e-08
-1.32047e-08
-2.76273e-09
5.70142e-09
2.65101e-10
3.26161e-09
1.45193e-09
-1.42673e-09
-2.96505e-09
-6.37178e-09
-1.36671e-08
-1.73607e-08
-1.37937e-08
-7.40729e-09
4.92364e-09
7.62655e-09
5.50656e-09
2.05438e-08
3.7611e-08
3.09008e-08
-7.72971e-08
-5.21278e-08
1.05243e-08
-2.70025e-08
-3.99981e-08
-1.71003e-08
-3.64523e-09
-2.32316e-09
1.51908e-08
-2.07739e-08
-2.68344e-08
4.322e-08
3.92156e-09
1.26507e-09
1.02534e-08
5.65356e-09
-1.08388e-09
-1.86772e-10
-2.08227e-10
-7.37757e-10
1.18061e-08
7.08299e-09
-1.80989e-08
-1.85095e-08
-1.71995e-09
1.30904e-09
-1.99932e-09
-6.03932e-10
1.12292e-09
-3.48914e-10
-7.1432e-09
-1.67082e-08
-1.20955e-08
2.31757e-10
3.21368e-09
2.53335e-09
4.64405e-09
1.08675e-08
2.83103e-08
3.91822e-08
-2.54098e-08
-6.01441e-08
7.53176e-09
-1.66873e-08
-3.06473e-08
-9.43479e-09
4.0125e-09
3.03435e-09
4.52459e-09
1.27694e-08
-1.49168e-08
1.03487e-08
2.39751e-08
-2.97681e-09
-4.06432e-09
-1.85044e-09
-1.93076e-09
3.35935e-10
3.154e-11
-4.15712e-09
1.21538e-09
-1.70068e-09
-2.63263e-08
-1.15879e-08
3.34519e-09
-2.62879e-09
-1.94353e-09
1.74079e-09
3.83019e-09
4.06824e-09
2.5329e-09
-8.09525e-09
-1.7098e-08
-4.34129e-09
5.62352e-09
-4.98162e-10
-3.44096e-09
3.82594e-09
1.11723e-08
2.10276e-08
3.90592e-08
-2.26071e-09
1.87305e-09
2.2328e-09
9.50623e-10
5.61058e-09
3.98638e-09
5.56161e-10
-9.84197e-10
2.6591e-09
1.87208e-09
6.1548e-10
1.66893e-08
-1.6458e-09
-7.24686e-09
-1.97562e-09
4.61056e-10
8.20721e-10
1.67048e-09
-1.36189e-09
-3.90185e-09
-3.57009e-09
4.568e-09
1.22635e-08
4.4042e-09
1.29017e-09
3.37048e-09
5.83112e-09
4.7268e-09
4.85035e-09
1.0027e-08
1.04811e-08
-7.69623e-09
-1.34117e-08
7.69874e-10
4.87185e-09
-3.19974e-09
-4.04086e-09
3.84802e-09
3.85836e-09
2.58453e-08
2.66482e-08
2.51108e-09
7.57234e-09
1.47075e-08
7.88792e-09
1.48457e-09
1.23384e-09
9.61454e-10
-2.93296e-09
-4.47788e-09
-2.53417e-09
1.10418e-08
5.673e-09
-3.09311e-09
-6.52557e-11
1.78168e-09
7.62779e-10
1.91383e-09
1.47149e-09
3.37654e-10
9.00087e-09
1.37574e-08
4.71233e-09
-1.82286e-09
3.68202e-09
5.69351e-09
-1.03995e-09
-1.59379e-09
2.85862e-09
6.11219e-09
1.51619e-08
1.27997e-08
-8.51259e-09
-7.75478e-09
2.86107e-09
3.50799e-09
-3.92706e-09
-3.92263e-09
-1.08724e-09
3.98182e-09
4.13431e-09
6.74101e-10
9.02074e-10
1.03489e-09
1.2339e-09
7.05002e-10
1.87768e-09
4.86996e-09
-1.47395e-09
-1.11988e-08
-9.10358e-09
5.88733e-09
8.51829e-09
1.221e-09
1.33774e-09
1.93454e-09
-8.23966e-10
-2.61102e-10
2.79876e-09
-4.99718e-09
-4.2567e-09
-2.81308e-09
-5.29354e-09
4.61561e-09
5.74043e-09
-6.96327e-09
-8.7169e-09
-7.97018e-10
2.87688e-09
6.77202e-10
3.25415e-09
1.53914e-08
6.51653e-09
-6.61689e-09
-7.66478e-10
3.33821e-09
1.53901e-09
-2.57156e-09
-2.25598e-09
-3.98341e-10
3.34419e-10
-2.7428e-11
-7.78764e-10
-9.38161e-10
7.55668e-11
1.50512e-10
-2.65071e-10
2.87279e-09
-1.87589e-09
-1.51587e-08
-1.26043e-08
1.11664e-09
5.64878e-09
2.06017e-09
-3.73336e-10
-2.52975e-09
-2.81106e-09
-1.09321e-09
2.60688e-09
2.08125e-09
-7.26554e-09
-3.82957e-09
9.19264e-09
7.30153e-09
-8.43557e-09
-6.33151e-09
9.07927e-09
1.30427e-08
5.89811e-09
8.21562e-10
1.66053e-09
9.21392e-09
1.28378e-08
-1.61483e-09
-3.96376e-09
2.12312e-09
2.33711e-09
-6.73908e-10
-1.54552e-09
-2.04556e-09
-6.14053e-10
7.25399e-10
1.61328e-09
7.37061e-10
-1.20841e-10
1.49279e-10
-2.2282e-10
1.30009e-09
-3.55776e-09
-2.12858e-08
-1.91665e-08
-1.53049e-09
4.1178e-09
-2.25641e-09
-8.19863e-09
-6.61537e-09
-8.5897e-10
1.22019e-09
5.35201e-10
3.67766e-09
9.47495e-09
1.24908e-08
3.56113e-09
-1.42026e-08
-9.02732e-09
1.21982e-08
9.17584e-09
-7.52857e-09
-5.80186e-09
1.7207e-09
1.02229e-09
4.29831e-09
1.14477e-08
5.50044e-09
-5.4345e-09
-2.89457e-09
1.95831e-09
1.56299e-09
2.304e-09
6.79869e-10
6.40527e-10
1.94321e-09
1.32458e-09
-9.29002e-10
-7.20379e-10
4.58291e-10
2.80217e-10
9.48814e-10
-6.28012e-10
-1.71002e-08
-2.19302e-08
-1.84256e-09
2.64062e-09
-1.01853e-08
-1.22802e-08
-3.551e-09
1.70115e-09
5.74124e-10
-1.54722e-10
2.39646e-09
4.40499e-09
-1.51909e-09
-1.38814e-08
-1.04913e-08
9.85893e-09
6.88095e-09
-1.23572e-08
-1.094e-08
-4.66638e-09
-1.94819e-09
4.4399e-09
3.6762e-09
6.78682e-09
9.6584e-09
1.53927e-09
-4.44059e-09
-1.45695e-09
2.47021e-09
-4.75159e-12
1.98416e-09
3.42595e-09
2.03669e-09
-5.5896e-10
-4.30212e-11
8.17938e-10
6.60382e-10
8.327e-10
9.03577e-10
-4.91237e-10
-4.14793e-09
-4.09857e-09
2.68151e-09
1.03609e-09
-1.73315e-09
2.29422e-09
3.85695e-09
1.5273e-09
3.1674e-10
3.13245e-10
-1.15248e-09
-4.7466e-09
-7.25917e-09
6.85568e-10
9.68563e-09
-1.01934e-09
-8.33909e-09
4.13978e-09
9.63443e-09
6.55264e-09
1.32445e-10
-7.42125e-09
9.65047e-10
3.91323e-09
5.42571e-09
5.71181e-09
2.33768e-09
-1.06905e-09
-1.68486e-09
-1.60514e-09
-3.01647e-10
2.37296e-09
3.31129e-09
1.83704e-09
4.35938e-10
1.32049e-10
4.65326e-10
7.23423e-10
-1.50149e-10
-1.65499e-09
1.40972e-10
4.3931e-09
4.63285e-09
2.91058e-09
2.66546e-09
2.42486e-09
1.79923e-09
7.61043e-10
-1.90244e-11
-2.82129e-10
-4.75509e-10
-3.53357e-10
2.05888e-09
3.16031e-09
-1.30031e-09
-1.30239e-09
3.55284e-09
1.04054e-09
-4.39152e-09
-2.76817e-09
5.58424e-09
-4.10791e-09
-1.93982e-08
-6.16445e-09
2.76049e-09
1.82604e-09
-6.85244e-10
-1.49203e-09
-1.56261e-09
1.52774e-09
5.91977e-10
-2.25677e-10
-1.76038e-10
3.68529e-10
7.556e-10
6.08646e-10
2.82298e-10
4.23152e-11
-7.59244e-10
-1.75173e-09
-1.10443e-09
1.03269e-09
2.14448e-09
1.79462e-09
1.29854e-09
9.63399e-10
5.45248e-11
-7.60729e-10
-3.76827e-10
2.80586e-10
5.02955e-10
8.28327e-10
6.89614e-10
-8.9533e-11
2.46391e-10
1.56719e-09
1.95258e-09
1.00637e-09
-1.2629e-09
-3.23743e-09
5.59833e-10
8.04909e-09
1.82111e-10
-6.81377e-09
2.36926e-10
1.03826e-09
-2.26538e-09
-1.16836e-09
1.29984e-09
5.91782e-10
4.38812e-10
8.78109e-10
5.00829e-10
-4.97138e-10
-7.55612e-10
2.55385e-10
1.03021e-09
2.5417e-10
-2.38577e-10
2.28158e-10
1.17463e-09
1.73703e-09
1.19953e-09
-1.43343e-10
-1.19563e-09
-6.17854e-10
2.68131e-10
4.58972e-10
6.48205e-10
5.59703e-10
1.91363e-11
-5.08212e-11
7.36052e-10
1.69679e-09
1.70911e-09
-1.77401e-10
-2.72232e-09
-3.23752e-09
-1.66539e-09
4.7373e-10
1.48125e-09
2.21867e-09
3.95047e-09
3.12515e-09
1.27878e-09
7.58758e-10
9.37312e-10
1.09274e-09
9.33788e-10
1.89363e-10
-9.34987e-10
-1.481e-09
-1.91984e-10
1.03109e-09
1.04627e-09
1.32123e-09
1.84037e-09
2.95198e-11
-1.2135e-09
1.91948e-09
3.01453e-09
1.05718e-09
3.19924e-10
-4.4615e-10
-1.57547e-09
-3.82868e-10
1.06289e-09
7.42489e-10
2.80737e-10
5.08391e-10
6.81094e-10
3.06415e-10
-6.53954e-10
-1.88167e-09
-2.22076e-09
-1.22918e-09
9.13212e-11
8.00675e-10
9.1201e-10
7.30577e-10
4.06354e-10
3.45468e-10
8.55745e-10
1.22527e-09
6.47893e-10
-2.33357e-10
-6.03552e-10
-3.39457e-10
2.54964e-10
8.69269e-10
8.67403e-10
5.06777e-10
7.57219e-11
1.8116e-10
8.62167e-10
1.53058e-09
1.56342e-09
-3.21574e-10
-4.77159e-09
-6.49838e-09
-2.58275e-09
2.05068e-10
2.06385e-10
3.95907e-10
1.2107e-09
1.55744e-09
1.065e-09
7.19303e-11
-7.15135e-10
-8.13463e-10
-3.41482e-10
3.66253e-10
1.0653e-09
1.38967e-09
1.22208e-09
9.40908e-10
4.40814e-10
-1.27195e-10
5.17111e-11
2.81408e-10
-3.89709e-10
-7.16413e-10
5.33979e-11
1.11936e-10
-7.90813e-10
-1.49763e-09
-1.38522e-09
-5.49846e-10
3.83831e-10
-1.60049e-09
-1.16252e-09
-2.91253e-10
5.66428e-10
4.86202e-11
-1.43749e-09
-1.57393e-09
-1.46049e-10
1.03607e-09
1.55872e-09
1.38273e-09
6.01829e-10
2.20141e-10
2.84765e-10
3.35898e-10
4.81507e-10
1.08536e-09
1.6695e-09
1.44941e-09
6.91894e-10
1.23501e-10
-1.42636e-10
1.27293e-11
4.38823e-10
6.31415e-10
4.69415e-10
2.57879e-10
1.48231e-10
2.8226e-10
4.75923e-10
1.02545e-10
-6.4446e-10
-8.66637e-10
-2.26877e-10
4.54974e-10
2.23645e-11
-9.84469e-10
-1.6705e-09
-1.92163e-09
-1.87126e-09
-6.83627e-09
9.88417e-10
9.17037e-09
2.74023e-08
4.37486e-08
5.46665e-08
6.09367e-08
5.91056e-08
5.17158e-08
4.29721e-08
3.68048e-08
3.84218e-08
5.5688e-08
9.46142e-08
1.52044e-07
2.13239e-07
2.79953e-07
3.78204e-07
5.04889e-07
5.24407e-07
2.63514e-07
2.74631e-08
-1.98958e-08
-8.87671e-09
7.49321e-08
1.17523e-07
1.22022e-07
1.26087e-07
1.51181e-07
2.13236e-07
3.20963e-07
4.30088e-07
4.23799e-07
2.55183e-07
3.85398e-08
-3.82789e-08
5.62407e-08
4.4367e-08
3.18759e-10
-8.59156e-09
-3.0247e-09
-6.85431e-10
-8.91087e-09
-4.15715e-08
-8.45731e-08
-1.03514e-07
-9.66892e-08
-7.18743e-08
-5.08719e-08
-5.67912e-08
-1.02576e-07
-1.85034e-07
-2.9117e-07
-4.05536e-07
-5.24377e-07
-6.48468e-07
-7.90354e-07
-9.54527e-07
-1.06386e-06
-8.65636e-07
-3.27676e-07
-4.58035e-08
2.59033e-09
-6.35023e-08
-9.88452e-08
-7.0928e-08
-8.25688e-08
-1.52255e-07
-3.10138e-07
-5.79255e-07
-8.61208e-07
-9.47733e-07
-7.12964e-07
-3.1255e-07
-3.58837e-08
-3.97222e-08
-1.14237e-07
1.8212e-08
3.26428e-08
-6.57741e-09
2.07126e-10
4.21483e-10
-2.41369e-09
-1.16828e-08
-2.48879e-08
-3.78418e-08
-4.69266e-08
-5.65097e-08
-6.37643e-08
-6.01438e-08
-4.71297e-08
-3.7662e-08
-3.71925e-08
-3.9319e-08
-3.77264e-08
-2.3266e-08
4.41801e-09
1.89158e-08
-1.63446e-08
-1.04124e-07
-1.27523e-07
1.97542e-08
1.30932e-07
9.2334e-08
-5.08915e-08
-1.05743e-07
-1.10049e-07
-8.68204e-08
-5.95461e-08
-4.29653e-08
-4.53289e-08
-7.54599e-08
-1.19927e-07
-1.23585e-07
-5.31194e-08
7.90605e-08
1.3005e-07
7.88539e-08
9.42129e-08
3.09812e-08
1.4119e-08
2.86876e-09
5.40846e-09
1.20432e-08
1.9048e-08
2.35937e-08
2.58523e-08
2.67551e-08
2.75524e-08
2.87371e-08
3.46078e-08
4.60176e-08
5.93443e-08
7.70718e-08
1.01828e-07
1.29538e-07
1.62409e-07
1.97138e-07
2.21397e-07
2.14098e-07
1.37846e-07
2.79226e-08
1.81795e-08
1.02796e-07
5.65018e-08
4.69455e-08
6.21385e-08
7.61008e-08
1.06008e-07
1.48742e-07
1.86776e-07
2.04508e-07
1.85368e-07
1.27469e-07
5.8841e-08
1.79442e-08
2.98388e-08
4.63586e-08
8.53217e-08
9.23296e-08
5.32093e-08
2.97357e-09
1.33358e-09
5.02016e-09
8.94621e-09
1.03385e-08
9.88556e-09
1.13774e-08
1.77575e-08
2.23963e-08
1.94008e-08
1.99358e-08
2.33093e-08
2.17438e-08
1.99702e-08
2.57736e-08
3.45763e-08
3.89514e-08
3.64938e-08
3.32611e-08
3.22038e-08
-2.8657e-08
-1.44629e-07
-3.41619e-08
3.4562e-08
1.59277e-08
2.72741e-08
1.96448e-08
1.27461e-08
2.66474e-08
4.38465e-08
4.95634e-08
4.41515e-08
2.42176e-08
-2.1197e-08
-1.01059e-07
-1.58091e-07
-1.32637e-07
-5.24931e-08
1.00094e-07
1.18041e-07
1.81195e-08
7.09417e-10
2.08655e-09
2.92026e-09
1.6763e-09
-1.08531e-09
-6.19586e-09
-8.85135e-09
8.20746e-10
8.0828e-09
6.52928e-09
4.2483e-09
-1.86909e-09
-5.19999e-09
5.66569e-09
1.33426e-08
5.65506e-09
7.55888e-09
-8.93479e-09
-1.7453e-08
3.20018e-08
-2.49238e-08
-7.28851e-08
2.12375e-08
-8.46732e-09
-1.50094e-08
1.29027e-09
4.81797e-09
7.32157e-09
1.56629e-08
2.02617e-08
1.95807e-08
1.54075e-08
1.12545e-08
3.54523e-09
-3.97744e-08
-1.0041e-07
-1.28956e-07
-1.23159e-08
7.6514e-08
6.46599e-08
1.8689e-09
2.01682e-09
3.08037e-09
2.35238e-09
7.94059e-10
-3.71724e-09
-1.60641e-08
-2.52583e-08
-7.82744e-09
9.60182e-09
1.3474e-08
1.0349e-08
8.39e-09
1.45833e-08
7.85252e-09
-2.43875e-09
2.75795e-09
-2.29785e-09
-7.47666e-09
2.88172e-08
1.78783e-08
-7.74578e-08
6.69046e-11
3.26301e-09
-1.39265e-08
-5.91067e-09
1.55454e-09
5.94915e-09
7.88173e-09
9.27427e-09
1.4827e-08
2.38624e-08
2.1652e-08
1.72101e-08
1.25505e-08
-2.39645e-08
-9.97612e-08
-1.4821e-07
-1.03412e-07
9.43589e-08
1.54023e-08
-1.17064e-09
3.36581e-09
3.94055e-09
2.93225e-10
-4.9012e-10
5.56255e-10
-1.1267e-08
-2.55252e-08
-1.10727e-08
9.42412e-09
1.45989e-08
1.44806e-08
8.99657e-09
-2.83521e-09
-1.40746e-09
5.6697e-10
1.82513e-10
8.34477e-09
2.11141e-08
-3.02029e-09
-3.26774e-08
3.57853e-09
6.59073e-09
4.40077e-10
-1.0878e-09
-2.02417e-09
-5.48737e-09
-1.17739e-08
-1.92768e-08
-2.51454e-08
-1.51403e-08
1.02977e-08
1.83447e-08
1.92815e-08
1.88481e-08
-2.28694e-08
-1.58325e-07
-2.11843e-07
1.1018e-08
4.382e-08
-1.79245e-09
-1.11027e-09
7.41054e-09
9.53877e-09
6.17181e-09
6.78485e-09
1.35275e-08
-1.60913e-09
-2.38109e-08
-1.8141e-08
-6.34867e-09
8.51114e-09
2.98161e-09
-1.02171e-08
-7.31698e-10
1.69208e-10
1.25172e-09
1.08161e-08
9.1828e-09
-1.77872e-08
-9.66602e-09
9.31783e-09
5.02189e-09
2.82982e-09
1.13697e-09
-2.34534e-10
-5.42662e-10
-2.77755e-09
-1.32652e-08
-2.85734e-08
-3.66417e-08
-2.2932e-08
4.08592e-09
1.44536e-08
2.13448e-08
2.28937e-08
-6.47839e-08
-1.5767e-07
-1.1271e-07
3.91917e-08
8.16443e-09
3.89202e-09
1.01204e-08
9.382e-09
-1.03434e-09
-2.15981e-09
8.41832e-09
2.37084e-08
2.08339e-09