/*--------------------------------*- C++ -*----------------------------------*\
| =========                 |                                                 |
| \\      /  F ield         | OpenFOAM: The Open Source CFD Toolbox           |
|  \\    /   O peration     | Version:  5.0                                   |
|   \\  /    A nd           | Web:      www.OpenFOAM.org                      |
|    \\/     M anipulation  |                                                 |
\*---------------------------------------------------------------------------*/
FoamFile
{
    version     2.0;
    format      ascii;
    class       volScalarField;
    location    "50.4676134421789371";
    object      Vdiffvw;
}
// * * * * * * * * * * * * * * * * * * * * * * * * * * * * * * * * * * * * * //

dimensions      [0 2 -3 0 0 0 0];

internalField   nonuniform List<scalar> 
60000
(
3.09e-09
1.03418e-09
-3.94435e-10
2.13396e-10
1.25033e-09
5.51304e-10
-3.1016e-10
-1.27599e-10
-3.26249e-11
1.28659e-09
2.96958e-09
2.33843e-09
2.84366e-10
4.53065e-11
7.31576e-10
1.83864e-09
3.00776e-09
2.76917e-09
-1.00061e-09
-4.83114e-09
-2.83982e-09
2.0657e-09
7.15574e-10
-6.37675e-09
-8.57836e-09
-5.07979e-09
-2.05133e-09
-1.33766e-09
-2.50614e-10
9.55768e-12
8.81879e-11
1.14005e-09
1.26896e-10
-1.64311e-09
-3.18277e-09
-1.46547e-09
5.36981e-10
-6.13194e-10
1.39894e-09
3.48978e-09
-1.07738e-09
4.04165e-10
1.15934e-10
-1.03994e-10
-5.57926e-10
7.45628e-10
6.1612e-10
-1.42668e-10
-1.60661e-10
-1.10624e-09
-9.65283e-10
1.0205e-09
1.24283e-09
-1.99016e-10
2.12887e-10
1.88779e-09
2.62404e-09
2.03813e-09
5.90661e-10
-1.33482e-09
1.77894e-09
9.02502e-09
3.39168e-09
-6.04255e-09
-3.98287e-09
2.56187e-09
5.28975e-09
2.65655e-09
-1.00512e-09
-6.92435e-10
3.10916e-11
8.05518e-10
3.76642e-09
4.7278e-09
3.51019e-09
-8.29271e-10
-1.75543e-10
-1.02916e-10
-4.86706e-09
-4.5473e-09
-9.21089e-11
1.39452e-09
5.2067e-10
-1.39603e-11
-4.08705e-10
-5.71666e-10
7.03017e-10
-8.30188e-11
3.88501e-10
-1.13639e-09
-1.02273e-09
8.7643e-11
6.50914e-10
1.02424e-10
8.03381e-11
-2.81708e-10
-1.53178e-09
-2.62995e-09
-7.20566e-10
5.33146e-10
8.56612e-11
1.89443e-09
-6.35525e-10
-3.78784e-09
3.73545e-10
3.7174e-09
1.95416e-09
-9.46954e-10
-2.4273e-09
-2.28998e-09
-9.29534e-10
-1.20481e-09
-1.27167e-09
-3.62476e-10
-1.1545e-10
-3.65981e-11
-8.33243e-10
1.33734e-09
1.30644e-09
-1.60396e-09
-1.7235e-09
3.51163e-09
2.44959e-09
-3.41518e-10
-4.26683e-10
-8.42108e-10
-2.8266e-10
6.37284e-10
-1.79596e-10
-5.82737e-11
-9.74331e-10
2.75817e-09
3.7809e-09
7.63547e-10
-2.86364e-10
1.15823e-09
9.77404e-10
-9.57731e-10
-5.40043e-10
-8.47867e-11
-5.83713e-09
-3.33255e-09
2.41953e-09
-2.78478e-09
-4.92122e-09
-3.27287e-09
-1.83905e-09
-4.67421e-10
-3.84438e-10
-1.0465e-09
-5.50738e-10
-1.99139e-10
-8.39466e-10
-4.52347e-12
7.38905e-10
-8.95075e-10
-9.89647e-10
7.44106e-10
2.59577e-09
-4.62504e-10
-5.83945e-09
-4.14414e-09
3.20006e-09
5.61981e-10
-7.95415e-10
-6.25344e-10
-8.18293e-10
6.78773e-10
3.86507e-12
1.1735e-09
-2.53691e-09
-1.64677e-09
4.68814e-09
3.41867e-09
-1.00562e-09
1.12636e-09
2.23446e-09
-8.24178e-10
-9.39615e-10
5.53533e-09
-1.90933e-09
-1.00424e-08
8.89178e-10
5.49592e-09
1.3622e-10
-1.46605e-09
-1.46767e-09
1.31271e-09
3.71291e-09
2.62288e-09
7.0365e-10
2.99543e-10
-1.59824e-10
-7.08454e-10
1.45127e-09
2.97144e-09
-5.82683e-10
-6.6301e-10
2.50571e-09
2.64744e-09
2.30094e-09
-8.80685e-09
-2.91705e-09
1.73437e-09
-5.00194e-10
-6.00782e-10
-6.73113e-10
-2.93188e-10
3.77554e-10
1.10944e-10
2.19575e-10
-5.90998e-09
-1.38035e-09
3.45895e-09
3.37395e-10
4.21682e-10
2.30011e-09
-4.08547e-10
-2.12873e-09
4.46876e-09
7.89385e-09
-1.30906e-08
-7.43982e-09
1.18667e-08
1.07186e-08
1.39901e-09
-2.38196e-09
-6.43245e-10
8.77307e-10
1.79186e-09
1.66355e-09
9.6102e-10
4.68528e-10
-2.92405e-10
-1.22704e-09
1.13919e-09
1.96702e-09
-1.65534e-09
-1.05621e-09
3.61325e-09
4.64524e-09
1.00996e-10
-6.90177e-09
-1.01448e-09
5.38738e-10
-2.09903e-10
-2.97041e-10
-9.06735e-10
-4.07628e-10
-5.81905e-10
4.81428e-10
-4.83047e-09
-7.55029e-09
-2.16583e-09
1.83826e-09
-4.90697e-10
-4.06071e-09
-9.64691e-10
-3.24364e-10
1.93276e-09
1.08695e-08
-6.12539e-09
-1.06865e-08
1.2791e-08
1.16788e-08
-1.17079e-09
-2.86963e-09
-7.96339e-10
-2.54728e-10
-8.03278e-11
2.93445e-10
8.26932e-10
1.3281e-09
1.22622e-09
6.26219e-11
-1.11376e-09
3.00023e-10
-2.06793e-10
-2.45893e-09
-8.2324e-10
6.81227e-10
4.36775e-09
-6.18512e-10
-1.71277e-09
3.14578e-11
2.21448e-10
2.16594e-10
3.45746e-11
-5.31842e-10
-4.461e-10
-1.41296e-10
-2.48447e-09
-1.06162e-08
-5.77351e-09
3.38577e-09
-4.5789e-09
-1.02282e-08
-3.13701e-09
2.69744e-10
-1.2382e-09
5.83721e-09
-2.7629e-10
-1.24765e-08
7.94918e-09
7.53009e-09
-2.90295e-09
-1.95414e-09
-3.57457e-10
-2.31166e-10
-1.42812e-10
-4.06426e-10
-8.28026e-10
-4.03958e-10
9.73867e-10
1.26799e-09
-1.62581e-10
-1.22391e-09
-5.41957e-10
-1.21969e-09
-2.7024e-09
-2.38967e-09
2.062e-09
1.57567e-09
-6.27272e-10
-4.15683e-10
3.43299e-11
2.98142e-11
2.03996e-10
7.50222e-10
7.59293e-10
3.17231e-10
-8.93601e-10
-5.22435e-09
-1.70756e-10
4.15936e-09
-5.91473e-09
-9.32122e-09
-3.4903e-09
3.22727e-10
-3.88436e-09
-1.19206e-09
-3.78851e-10
-8.9399e-09
4.59197e-09
2.59819e-09
-2.47092e-09
2.65456e-10
2.05844e-10
-4.9415e-11
-4.61364e-11
-4.41301e-10
-9.50957e-10
-1.34331e-09
-8.27833e-10
6.04477e-10
9.09045e-10
-3.86085e-10
-1.07817e-09
-7.35575e-10
-1.66506e-09
-2.68348e-09
-7.01395e-10
1.15579e-09
-4.87907e-10
-6.29303e-10
-5.02088e-10
2.77266e-11
1.86165e-11
8.39795e-10
1.72051e-09
8.21346e-10
-7.58245e-10
1.77534e-09
7.13603e-09
2.45813e-09
-4.0598e-09
-3.14431e-09
-1.48361e-09
5.08814e-11
-3.32047e-09
-6.48671e-09
-2.80421e-09
-3.38727e-09
1.62976e-09
-2.93096e-10
2.21043e-09
2.34808e-09
2.61839e-10
1.00705e-10
1.58954e-11
-4.49335e-10
-7.2843e-10
-6.35229e-10
-4.42586e-10
1.2939e-10
9.39936e-10
8.7531e-10
-1.24013e-10
-4.00673e-10
-6.88424e-10
-1.39213e-09
-1.68275e-09
5.22863e-10
1.03294e-09
1.32789e-09
-7.68391e-11
-2.66425e-10
2.01624e-10
6.25668e-11
1.40064e-09
1.26244e-09
-1.38065e-09
3.4966e-10
5.00759e-09
-6.87053e-12
-3.46258e-09
-2.19152e-09
-1.33291e-09
-4.30837e-10
-9.92774e-10
-5.76149e-09
-3.39336e-09
-1.52484e-10
-3.92395e-09
-7.85661e-10
4.98949e-09
2.14756e-09
-1.02962e-10
1.4283e-10
7.02775e-11
-3.3057e-10
-5.70078e-10
-3.40409e-10
2.68281e-10
8.14999e-10
9.14236e-10
1.05573e-09
9.0192e-10
4.79743e-10
1.30005e-10
2.85157e-10
-1.36452e-09
6.98011e-11
3.04636e-09
3.14985e-09
5.88636e-10
-3.1939e-10
2.62465e-10
-3.12418e-10
5.82606e-10
1.93736e-09
-7.19704e-10
-1.2924e-09
1.71869e-09
-1.83599e-10
-3.61299e-09
-2.71143e-09
-7.52402e-10
-7.7996e-10
1.23722e-09
1.0046e-09
3.2267e-10
1.31692e-09
-5.38212e-09
-5.1677e-10
4.44757e-09
9.87652e-10
-3.07452e-10
2.32975e-10
1.97573e-10
1.48169e-10
2.46767e-10
-1.69665e-10
2.58384e-10
1.02987e-09
1.16043e-09
6.203e-10
5.86327e-10
8.06763e-10
1.00887e-09
1.6248e-09
1.35076e-10
-6.52297e-10
2.2574e-09
2.44775e-09
8.75177e-10
-2.24735e-10
-1.81478e-10
3.43399e-10
9.25319e-10
1.76567e-09
-1.03872e-09
-2.65973e-09
1.52851e-09
2.03987e-09
-1.76062e-09
-7.31326e-10
1.3107e-09
-9.77453e-11
8.09026e-10
6.8591e-09
7.01762e-09
1.99807e-09
-2.84393e-09
1.8932e-09
3.19624e-09
2.21139e-11
-6.17072e-11
5.02531e-10
2.53398e-10
4.51678e-10
1.38941e-09
1.22532e-09
1.31414e-10
6.3817e-10
1.3868e-09
8.57362e-10
5.81819e-11
-1.59267e-12
6.09383e-10
8.28494e-10
1.16736e-09
-6.19363e-10
-8.61078e-10
2.60665e-11
8.64138e-10
6.86095e-10
-2.72443e-10
-5.40265e-10
3.60241e-10
3.35067e-09
6.9478e-10
-5.36914e-09
-1.20047e-10
3.60135e-09
2.07346e-10
1.57379e-09
3.8383e-09
1.62993e-09
-2.50847e-09
2.67834e-09
7.71513e-09
1.17952e-09
-1.26702e-09
9.48281e-10
1.271e-10
-5.44733e-10
1.94595e-11
3.45791e-10
4.3801e-11
-5.81138e-11
1.09086e-09
1.96843e-09
3.6896e-10
5.01094e-11
1.40669e-09
1.18379e-09
9.42161e-11
-1.28934e-10
-2.45202e-11
-2.80427e-10
3.30168e-10
1.3707e-10
-1.05025e-09
-7.43977e-10
4.59036e-10
9.34864e-10
6.9727e-10
1.15426e-10
-1.13347e-09
1.45347e-09
4.566e-09
-3.05927e-09
-2.25607e-09
3.87557e-09
2.55959e-09
3.60752e-09
5.46506e-09
1.78436e-09
-1.79964e-09
5.51069e-10
4.83113e-09
1.63502e-09
-1.20484e-09
-7.74936e-10
-4.75155e-10
-5.46089e-10
-5.26819e-10
-2.63512e-10
-2.45619e-10
-9.47096e-10
-1.1407e-09
5.5358e-10
4.44583e-10
-1.6714e-09
2.78024e-10
1.86045e-09
2.33043e-10
-4.68272e-10
-4.32847e-11
1.39688e-10
-1.66961e-10
2.03388e-10
-2.21071e-11
-3.20544e-10
-9.75481e-11
-6.27676e-11
-2.63492e-10
2.23148e-10
-5.82803e-11
-4.74724e-10
3.81064e-09
1.45759e-09
-3.31856e-09
1.44781e-11
2.40785e-09
2.81913e-09
3.62161e-10
-5.48728e-10
-3.32883e-10
1.47389e-09
3.63041e-09
1.83199e-09
-6.40232e-10
-2.38877e-10
3.86475e-10
-3.22432e-11
-6.00255e-10
-4.51496e-10
-2.51578e-10
-3.89595e-10
-1.00261e-09
-8.14003e-10
2.65581e-10
-2.09247e-09
-2.83702e-09
1.12651e-09
1.57375e-09
-7.74478e-10
-4.8104e-10
1.98128e-10
-2.06269e-10
-8.01377e-10
-1.42043e-11
1.48146e-10
-4.72772e-10
-5.11841e-10
-5.62445e-10
-4.13388e-10
3.19537e-10
1.14086e-10
1.72188e-09
1.64799e-09
-3.19228e-09
-7.05132e-10
2.09922e-09
-1.80748e-09
-2.48944e-09
-4.41799e-10
1.28981e-11
1.1652e-09
2.13886e-09
5.94479e-10
-8.2772e-10
7.6118e-10
2.04758e-09
6.25126e-10
-5.12256e-10
-1.26258e-10
1.13796e-10
-2.25287e-10
-3.87743e-10
-7.5417e-10
-5.64123e-10
-1.07282e-09
-4.42165e-09
-2.89067e-09
1.28868e-09
4.81425e-10
-9.00495e-10
-2.04501e-11
-1.72338e-10
-5.87486e-10
-2.37506e-10
4.95751e-11
3.07464e-11
5.19513e-10
1.20639e-10
-1.02963e-09
-2.61925e-10
6.94897e-10
1.03351e-09
6.61009e-10
-6.79485e-10
1.19706e-09
-3.06308e-10
-2.36985e-09
-2.52373e-10
-9.1795e-11
-9.25498e-10
6.78907e-10
1.88417e-09
-2.43206e-10
-9.18414e-10
1.06988e-09
7.05629e-10
-9.35062e-10
-4.4861e-10
-5.84485e-10
-1.20137e-09
-1.34839e-09
-1.40072e-09
-6.37962e-10
-6.80579e-10
-5.78597e-10
-1.17474e-09
-2.65493e-09
-5.81944e-10
1.0408e-09
2.66052e-10
5.55877e-10
3.40662e-10
-1.64743e-10
-3.05042e-10
6.91767e-11
-3.42316e-10
-3.12428e-11
1.55117e-09
3.44845e-10
-1.06572e-09
4.10968e-10
6.45906e-10
4.60839e-10
9.86233e-10
1.9324e-10
-9.17623e-10
1.58552e-10
1.2806e-09
5.12642e-10
-1.13357e-09
-1.31153e-09
-2.13637e-10
-3.17302e-10
-7.60044e-10
-1.01641e-09
-1.28205e-09
-7.30631e-10
-7.84859e-10
3.22132e-10
1.84437e-09
7.57273e-10
-8.96073e-10
-4.94355e-10
1.53563e-10
-3.26683e-10
2.63523e-11
-3.86115e-10
-1.26145e-09
-3.41009e-10
4.98787e-10
-5.42969e-10
-5.98424e-10
-4.58971e-11
8.29034e-10
3.4641e-10
-1.3302e-09
-1.48826e-09
1.33729e-09
3.19435e-09
-1.217e-10
-1.53737e-09
2.00126e-10
2.89259e-10
-2.02733e-10
-3.16981e-10
-2.95488e-10
-1.4918e-10
4.07364e-10
1.03502e-09
5.68596e-10
-9.79497e-10
-1.24955e-09
-1.1503e-10
1.50225e-10
-1.30412e-10
-3.4133e-12
2.2704e-11
3.43874e-10
7.77938e-10
2.0994e-10
-1.83853e-09
-3.3519e-09
-2.13396e-09
-6.09794e-10
-5.05001e-10
8.77503e-11
5.24939e-10
-3.15801e-10
-9.91455e-10
-7.42293e-10
-1.24857e-10
-6.46302e-10
-8.6879e-10
1.4783e-10
3.64249e-10
-3.65617e-10
-6.02549e-10
3.22482e-10
2.61455e-09
2.32479e-09
-1.3984e-09
-1.51257e-09
1.34009e-10
1.65638e-10
1.13285e-10
1.94459e-10
-6.93977e-11
-2.73877e-10
-1.16853e-10
3.87101e-10
5.6104e-10
-2.34136e-10
-6.38332e-10
-1.07422e-10
1.9545e-10
9.2908e-11
-1.11885e-10
-2.10092e-10
-3.99133e-11
1.3e-10
-5.62586e-10
-1.74937e-09
-7.12994e-10
1.15095e-09
-4.06012e-11
-5.51928e-10
1.52236e-10
-5.56835e-10
-8.10794e-10
-3.13072e-10
4.58318e-10
2.11103e-10
1.1634e-10
-2.13265e-11
-1.41515e-12
1.31364e-10
-2.54685e-11
6.58577e-12
9.76602e-10
1.36397e-09
-2.14108e-10
-6.86456e-10
1.29024e-09
1.79229e-09
7.6184e-10
2.97999e-10
-1.84604e-10
-1.09269e-09
-1.20534e-09
-2.60549e-10
5.64364e-10
5.51362e-10
2.12978e-10
2.12195e-10
2.04423e-10
6.85841e-11
2.31352e-11
-1.56274e-10
-2.39809e-10
1.72565e-10
3.53733e-10
-6.48909e-10
-8.62488e-10
1.38103e-09
2.61692e-09
1.00937e-09
-8.42102e-11
5.34201e-10
1.18827e-09
1.0262e-09
-6.73036e-11
-3.31734e-11
8.08918e-11
-8.36481e-11
-8.74364e-12
4.98678e-10
2.90897e-10
-3.22883e-10
6.25944e-12
4.32045e-10
-2.04873e-10
-4.80992e-10
3.26787e-10
1.3958e-10
-4.89111e-10
-5.35477e-11
4.80563e-10
2.30282e-10
-7.82437e-11
4.10955e-11
1.48386e-10
8.57225e-11
4.09646e-11
-2.83824e-11
-2.39229e-10
-3.85862e-10
-3.16463e-11
8.41041e-10
1.27343e-09
9.8408e-10
6.9792e-10
-6.73902e-11
-8.78614e-10
-3.18136e-10
1.70587e-10
-1.01702e-10
-3.85019e-10
-4.22167e-10
-2.77463e-10
-1.01612e-10
1.58222e-11
8.55997e-11
-8.03377e-11
-1.29647e-11
4.87744e-10
1.01165e-09
5.7752e-10
-3.00597e-10
3.82813e-10
1.32142e-09
5.17629e-10
-2.80064e-10
-1.00678e-10
-2.96002e-10
-6.66617e-10
3.48551e-11
7.81319e-10
6.24735e-10
1.6087e-10
-1.42063e-10
-3.83315e-10
-5.27104e-10
-4.30808e-10
-2.24567e-10
-5.99805e-11
1.43296e-10
4.47128e-10
5.88927e-10
4.05796e-10
9.29128e-11
7.45853e-11
6.09926e-11
-7.27569e-11
3.51653e-10
4.03315e-10
-5.05428e-11
-9.94754e-11
-1.40768e-10
-3.67166e-10
-2.93585e-10
-8.53766e-11
4.48102e-10
2.56283e-10
-2.7843e-10
-1.97585e-10
3.50889e-10
2.73229e-10
-5.78897e-10
-6.36094e-10
5.06978e-10
8.93136e-10
2.92466e-10
2.8609e-12
1.45465e-10
8.19973e-11
-3.44657e-10
-5.58535e-10
-3.6555e-10
-1.423e-10
-1.32835e-10
-2.4249e-10
-3.81097e-10
-4.81523e-10
-5.33371e-10
-2.91322e-10
-1.00005e-10
-1.9934e-10
-1.07418e-10
3.53444e-10
4.35969e-10
-2.69493e-10
-5.72995e-10
2.61096e-10
4.52007e-10
-4.548e-10
-8.20042e-10
-2.71532e-10
2.73794e-10
2.35905e-11
-4.05524e-10
1.02128e-09
5.2645e-10
1.31706e-10
2.22514e-10
2.29717e-10
4.04229e-10
4.39868e-10
2.56069e-10
2.60725e-10
2.26092e-10
-4.42639e-11
-1.0036e-09
-1.6358e-09
-1.74769e-09
-1.85602e-09
-2.69528e-09
-4.07841e-09
-2.68135e-09
2.19781e-09
1.06386e-09
-4.49406e-09
-1.86615e-09
9.63216e-11
-4.49262e-10
-3.68502e-09
-5.15396e-09
-3.04433e-09
-1.2908e-09
-9.19053e-10
-6.1479e-10
1.14804e-09
2.74329e-09
2.56794e-09
5.24064e-10
-1.03358e-09
-5.81488e-10
7.31598e-10
9.52071e-11
1.88104e-10
7.40468e-10
1.58801e-09
7.73942e-10
1.01516e-10
-2.67811e-10
-1.01935e-09
-1.18021e-09
-1.9947e-10
1.64947e-10
6.45832e-11
1.53469e-09
2.5786e-09
1.81987e-09
1.10196e-09
1.66571e-09
3.2195e-09
4.75744e-09
3.6e-09
-1.5749e-09
-4.14855e-09
-3.06822e-11
-5.43278e-09
-7.96173e-09
1.56385e-09
-9.36858e-10
-6.17705e-09
-4.53063e-09
-2.21072e-09
-2.19524e-09
-5.7744e-10
1.22601e-09
5.1076e-10
-4.44891e-10
-2.68997e-10
9.44184e-10
8.73917e-11
-1.56469e-09
-2.01321e-09
-6.31924e-11
8.24557e-11
9.78106e-10
6.38583e-10
5.9647e-10
-1.3991e-10
2.54917e-10
5.05281e-10
9.216e-11
-3.43074e-10
-2.20311e-10
-1.34246e-09
-1.41188e-09
-1.45659e-10
7.41343e-10
7.85711e-10
1.72847e-09
3.37616e-09
4.72725e-09
5.71642e-09
4.43249e-09
-1.07484e-09
-3.25754e-09
-3.80197e-09
-8.30287e-09
-1.07874e-09
2.45507e-10
-2.95905e-09
6.66078e-10
2.41469e-09
7.00808e-10
-5.17091e-10
9.78818e-11
6.21914e-10
-1.00037e-10
-1.30878e-09
-2.05946e-09
-2.00847e-09
-1.34499e-09
-3.71009e-10
1.09249e-10
-4.98304e-10
-1.11804e-09
-3.42096e-10
1.57416e-09
3.59183e-10
1.06084e-10
2.977e-10
-1.284e-10
-6.6374e-10
2.98855e-11
-7.00949e-10
-3.02563e-09
-1.05058e-09
9.96193e-10
1.08192e-10
-6.63689e-10
3.87588e-10
7.34873e-10
2.81113e-10
2.92918e-10
-1.1277e-09
2.20645e-09
7.59405e-09
-6.03065e-09
-6.11744e-09
6.7025e-10
-5.10908e-09
-4.60766e-09
-1.06073e-09
1.13161e-10
-5.62976e-10
-1.32812e-09
-1.72169e-09
-1.69291e-09
-9.66778e-10
-5.9775e-11
-1.73138e-10
-2.11925e-09
-1.59313e-09
-3.86401e-10
8.738e-10
-1.67491e-09
-2.87606e-09
1.49434e-09
1.22324e-09
-1.08882e-10
3.59847e-10
1.82109e-10
-1.00958e-09
-8.20848e-10
1.96772e-09
-2.89513e-09
-4.20429e-09
1.93828e-10
1.59864e-09
-1.95238e-10
-2.83148e-10
-1.57319e-10
-4.15797e-10
8.65153e-10
-1.19174e-10
-2.17846e-09
1.41262e-08
1.08387e-08
-6.73611e-09
4.13288e-10
-3.28755e-11
-3.09215e-09
-1.71936e-09
5.88767e-10
1.07415e-09
-4.8103e-10
-1.755e-09
-1.97715e-09
-1.2839e-09
3.35256e-10
2.52854e-09
1.21121e-09
-1.49238e-09
-8.11431e-10
1.23899e-09
2.61106e-10
-4.46355e-09
-2.22337e-09
1.43421e-09
-4.48914e-11
3.87033e-10
1.02778e-09
4.74118e-10
-1.07268e-09
2.03314e-09
4.22686e-09
-5.08216e-09
-3.78531e-09
9.5718e-10
6.16278e-10
-2.77983e-09
-5.35986e-09
-4.99175e-09
-1.51177e-09
2.54804e-09
-2.43308e-09
2.24812e-09
2.10537e-08
1.71555e-09
-4.84664e-09
7.16828e-09
6.53822e-09
1.43328e-09
-2.71722e-12
1.03672e-09
1.22708e-09
-2.41802e-11
-9.8444e-10
-3.94354e-10
6.00145e-10
1.87679e-09
3.83662e-09
4.6543e-10
-1.68852e-09
-3.3252e-10
2.88227e-09
9.64785e-10
-7.6959e-09
-7.44575e-11
2.71075e-10
1.27749e-10
1.02052e-09
1.07897e-09
6.55803e-10
4.59047e-10
7.65058e-09
3.70706e-09
-5.22578e-09
-9.95024e-10
1.25711e-09
-3.52802e-09
-7.20589e-09
-3.88441e-09
-1.20051e-09
2.04924e-09
-5.14049e-10
-3.71527e-09
1.87596e-08
9.041e-09
-8.09192e-09
9.87851e-09
1.16602e-08
3.33612e-09
3.13743e-10
-8.38294e-12
3.87401e-10
9.15442e-10
9.73844e-10
1.76986e-09
3.53918e-09
3.51031e-09
3.79211e-09
3.84454e-09
-1.64404e-10
-2.11727e-09
1.56655e-09
3.5288e-09
-5.32685e-09
-4.65165e-09
3.40064e-10
-2.60938e-11
3.74823e-10
9.59583e-10
1.4142e-09
9.53727e-10
2.63543e-09
1.12582e-08
3.8973e-09
-1.13694e-09
3.99091e-10
-3.4704e-09
-2.42555e-09
6.76081e-10
2.65566e-09
2.22349e-09
1.55848e-10
-3.82885e-09
1.19957e-08
9.18813e-09
-9.63498e-09
8.45603e-09
1.14355e-08
2.47204e-09
8.17569e-11
2.41058e-11
-4.10416e-11
1.55936e-10
2.07088e-10
-6.04302e-10
-3.01754e-10
2.34782e-09
3.26624e-09
3.86133e-09
2.5722e-09
-1.47093e-09
-2.19847e-09
-3.80493e-10
9.47116e-10
-3.7933e-09
8.49014e-11
-1.85787e-09
-1.42246e-09
1.09611e-09
-1.90979e-10
-1.66469e-09
-8.40839e-10
5.17277e-09
1.25261e-08
5.35216e-09
-1.10117e-10
-6.16921e-10
2.34141e-09
6.14394e-09
5.27575e-09
1.16856e-09
1.28144e-10
-3.85734e-09
3.53043e-09
4.17415e-09
-8.30689e-09
7.45442e-09
7.25348e-09
-1.03371e-09
-1.06304e-09
-1.48681e-10
4.58296e-11
2.56717e-10
4.38921e-10
-1.28674e-10
-2.49018e-09
-3.22848e-09
-1.22734e-10
2.43201e-09
3.18108e-09
1.01469e-09
-3.74578e-09
-3.49962e-09
1.23639e-09
-5.63896e-10
-9.01657e-10
-2.7188e-09
-2.18343e-09
-7.33094e-10
-4.02013e-10
-5.17057e-09
-6.0333e-09
-1.82247e-09
6.64546e-09
6.79246e-09
-1.94515e-09
-8.04271e-10
6.83179e-09
7.54134e-09
1.74889e-09
-1.53357e-09
2.01208e-10
-5.18615e-09
-5.95224e-09
-1.88513e-09
-4.62761e-09
4.24221e-09
-2.68175e-09
-5.47782e-09
-1.51854e-09
-3.60359e-11
2.83069e-10
2.23781e-10
3.05064e-10
3.57368e-10
-2.22309e-10
-2.00662e-09
-2.55815e-09
-2.8429e-10
1.95189e-09
2.47038e-09
-1.61861e-09
-2.37411e-09
-7.62282e-10
5.2828e-10
-8.42657e-10
-4.16399e-10
-4.48501e-10
-1.14535e-09
4.90133e-10
5.9842e-10
-6.97091e-09
-6.47853e-09
8.39044e-10
3.72083e-09
-2.45176e-09
-1.90191e-09
2.42425e-09
6.03599e-10
-2.81051e-09
-1.3266e-09
-3.92936e-10
-5.65735e-09
-1.13592e-08
-6.29549e-09
-9.97589e-10
-5.24275e-09
-1.03548e-08
-2.83411e-09
4.00955e-10
3.24956e-10
2.42106e-10
7.17048e-11
1.61405e-10
-2.20574e-10
-3.36107e-10
4.09532e-10
-2.26533e-12
-6.51265e-10
6.71635e-11
1.69564e-09
1.47828e-09
2.54849e-09
-4.4204e-10
4.99701e-10
1.82362e-09
2.11214e-09
1.24542e-09
-5.12171e-10
-2.30611e-10
2.16577e-09
-5.97755e-10
-7.9855e-09
-3.13856e-09
3.44866e-09
-1.09296e-09
-5.43659e-09
-6.38508e-09
-5.58899e-09
-1.45932e-09
6.0334e-10
-1.40217e-09
-4.08063e-09
-9.72426e-09
-4.13412e-09
2.13334e-09
-9.34007e-09
-5.34599e-09
1.98415e-09
1.02809e-09
2.7101e-10
1.12646e-10
2.661e-10
9.66356e-10
4.57538e-11
-1.94421e-09
-1.70421e-10
1.87227e-09
9.28236e-10
-4.16157e-10
-1.59767e-10
2.23849e-09
5.27699e-09
2.61635e-09
6.83579e-11
3.07261e-09
2.55374e-09
5.42685e-10
-4.36389e-10
-5.635e-10
5.81092e-10
1.03587e-09
-6.58145e-09
-8.39565e-09
2.17776e-09
5.2097e-10
-8.26594e-09
-1.01457e-08
-4.81137e-09
2.54636e-09
1.08249e-09
-1.36874e-09
6.40394e-10
-2.47155e-09
-4.24856e-10
1.28058e-09
-3.3842e-09
1.44652e-09
1.5177e-09
1.21039e-10
1.27911e-10
-2.0254e-10
8.82774e-11
1.76027e-09
1.96724e-09
-1.50421e-09
-2.53107e-09
1.09016e-09
1.87787e-09
1.27187e-10
-9.26405e-10
2.52483e-10
2.27618e-09
2.79275e-09
4.9236e-10
2.5732e-09
1.05176e-09
-3.88895e-10
-3.46846e-10
-3.26387e-10
-2.96891e-10
1.75972e-09
-2.32334e-09
-1.13885e-08
-1.65567e-09
3.05522e-09
-7.64982e-09
-9.19366e-09
-3.51678e-10
4.52467e-09
5.28569e-10
-8.02884e-10
4.26315e-09
4.73872e-09
2.3961e-10
-9.83598e-10
3.50944e-11
-8.05918e-10
-1.77475e-09
-1.10939e-09
-5.19792e-10
-1.23809e-11
-4.578e-10
-5.69856e-10
1.81241e-09
1.22874e-09
-2.46241e-09
-8.69148e-10
1.55723e-09
8.35266e-10
-3.21983e-10
-8.36221e-10
3.28655e-11
2.67708e-10
-1.13682e-09
-1.43637e-09
-3.44136e-10
2.93369e-10
1.95746e-12
-4.17026e-11
-1.62236e-10
8.09142e-10
1.49984e-09
-7.13121e-09
-4.37856e-09
4.11485e-09
-4.1933e-09
-3.5542e-09
2.76429e-09
2.74985e-09
-1.10667e-10
-9.36898e-10
2.75113e-09
5.06208e-09
1.64367e-09
-4.49197e-10
-1.56683e-09
-2.24738e-09
-7.8986e-10
9.59501e-13
-3.24346e-11
-5.93717e-11
-8.1356e-10
-2.9539e-09
-2.00945e-09
1.87604e-09
-1.04799e-10
-2.10034e-09
5.71993e-10
1.09338e-09
3.1534e-10
-2.23938e-10
3.48459e-10
-3.62974e-10
-1.42331e-09
-1.19174e-09
-2.06546e-10
1.23642e-10
1.60754e-10
-1.5191e-10
-8.8604e-11
4.51063e-10
1.20531e-09
-2.35811e-09
-3.47001e-09
2.58032e-09
8.81591e-10
7.28149e-10
1.29941e-09
3.51637e-10
-1.00908e-09
-1.21333e-09
7.33707e-10
1.98758e-09
8.6133e-10
-6.47946e-10
-6.26378e-10
1.32319e-09
2.65681e-09
1.12345e-09
-7.13793e-10
-5.79325e-10
1.07728e-09
1.20222e-09
-1.77521e-09
-6.06681e-10
1.58282e-09
-1.06222e-09
-2.21015e-10
1.28467e-09
6.57549e-10
5.72774e-10
5.11453e-10
-2.09436e-11
5.66419e-10
1.02533e-09
-4.73177e-10
-1.33765e-09
-2.88466e-10
3.40098e-10
-1.03611e-10
1.94573e-10
5.1964e-10
-1.54886e-09
-3.35965e-09
6.85759e-10
1.12419e-09
-1.80601e-09
-1.7803e-09
-8.82136e-10
-7.35714e-10
-9.48607e-10
-5.51181e-11
1.17321e-09
3.24958e-10
-9.8028e-10
7.44589e-10
3.36554e-09
2.74434e-09
3.76765e-10
-5.74187e-10
-3.02922e-10
-2.34379e-10
9.94564e-10
1.2275e-09
-1.71507e-09
-1.18485e-10
2.65681e-10
-1.72283e-09
-2.71324e-11
8.80972e-10
8.40179e-10
3.31927e-10
-2.11827e-10
1.61784e-10
4.8906e-10
4.9413e-11
-2.28391e-10
9.65857e-11
5.24594e-10
1.65472e-10
-2.06994e-10
-7.31303e-11
-1.12633e-09
-1.66062e-09
1.16683e-09
4.53877e-10
-3.04377e-09
-2.20299e-09
-1.02986e-10
5.84168e-10
-1.7305e-10
-5.52449e-10
1.36631e-10
-7.10038e-11
-9.83234e-10
4.56553e-10
1.92171e-09
-3.43676e-11
-1.28055e-09
-1.96882e-10
-2.17502e-11
-5.86226e-10
-1.74289e-09
4.86458e-10
1.48513e-09
-1.38591e-09
9.15801e-10
1.46033e-09
-4.63327e-10
-2.45203e-10
4.60266e-10
-3.0406e-10
2.21097e-10
8.75299e-10
7.6609e-10
3.18477e-10
2.22388e-11
-4.9388e-11
7.03503e-10
1.29619e-09
2.50047e-10
-3.26228e-10
-2.50858e-10
2.0252e-10
7.93336e-10
-8.51219e-10
-1.7657e-09
-2.35198e-10
5.53445e-10
2.5972e-10
-7.08867e-11
-4.56415e-10
-1.02411e-09
-1.39699e-09
-5.58999e-10
4.75466e-10
-8.5055e-10
-1.56271e-09
-1.01761e-09
-1.0017e-09
1.01706e-10
7.56914e-10
-5.47571e-10
-7.91568e-10
2.35278e-09
1.12857e-09
-6.9016e-10
1.34418e-09
1.2289e-09
-3.56907e-10
-5.65486e-10
-1.23238e-09
-1.52292e-09
-6.8637e-10
7.86014e-10
7.10242e-10
-6.91549e-10
-1.34916e-09
-3.17729e-10
2.54199e-09
2.75256e-09
-4.03144e-10
-2.47101e-10
6.54291e-10
-7.8638e-10
-1.16007e-09
4.23011e-11
3.83715e-10
-1.12155e-10
-1.35132e-10
4.73878e-11
2.0977e-11
-8.56609e-11
-1.79016e-10
-1.36372e-10
-4.94068e-10
-9.62588e-10
-8.55496e-10
-8.04908e-11
7.23697e-10
3.11227e-11
-9.00711e-10
2.55427e-10
1.19106e-09
1.10094e-09
1.19716e-09
-8.42957e-11
8.13661e-10
2.13077e-09
9.81812e-10
-5.43454e-10
-1.20571e-09
-1.14128e-09
-7.09612e-10
-3.26619e-12
-1.29171e-11
-4.43492e-10
-5.61592e-10
-9.02749e-10
2.37004e-10
3.35947e-09
1.87333e-09
-1.483e-09
-6.04844e-11
1.39034e-09
8.62993e-10
2.08401e-10
-1.75267e-10
-2.87656e-10
-1.30298e-11
2.82428e-11
-3.66919e-10
-2.47097e-10
2.67143e-10
1.06874e-10
-2.53392e-10
1.96991e-10
9.33711e-10
1.07339e-09
4.03515e-10
-8.18267e-10
-1.38344e-09
4.17202e-10
2.8581e-09
2.46209e-09
-5.25095e-10
-1.35825e-09
4.43287e-10
1.48788e-09
5.06809e-10
-7.6948e-10
-7.23539e-10
-7.06656e-10
-1.91817e-10
-5.73476e-13
-2.15748e-10
9.22242e-11
5.39138e-10
-1.78529e-10
-1.17697e-09
4.08849e-10
2.12729e-09
-1.93715e-10
-4.92398e-10
2.30774e-09
2.17236e-09
1.22509e-10
-3.88178e-10
9.08826e-11
3.91615e-10
4.41599e-10
2.58543e-11
-3.63416e-10
-8.15269e-11
1.6798e-10
6.82397e-12
-1.73047e-10
-2.95339e-10
-3.37979e-10
-4.0713e-10
-3.47953e-10
-6.44642e-11
4.20342e-10
5.06699e-10
1.13236e-09
1.39811e-09
-9.68019e-10
-1.02094e-09
7.90509e-10
9.96764e-10
-6.66508e-11
-1.13589e-10
9.56166e-11
1.4076e-10
3.65591e-12
-1.5228e-11
4.56312e-10
7.8563e-10
2.17144e-10
-4.17281e-10
-2.80167e-10
-1.77519e-10
-7.55577e-10
-6.19104e-10
1.24504e-10
-6.92122e-11
1.28422e-10
1.02287e-09
8.78686e-10
5.69859e-11
-9.61594e-11
1.29691e-10
1.11332e-10
8.21392e-11
-1.29218e-10
-6.37908e-10
-5.94563e-10
-1.45938e-10
2.64868e-10
9.18968e-10
1.08932e-09
2.19969e-10
-2.10711e-10
9.24027e-11
-9.86798e-10
-1.60982e-09
-4.39236e-10
1.12682e-10
-5.5326e-11
-2.83026e-10
-3.02508e-10
-3.81567e-10
-1.82839e-10
-1.94772e-10
-7.7736e-11
1.70525e-10
7.3251e-11
-3.14516e-10
-4.74511e-10
-1.25633e-10
6.01702e-10
8.61441e-10
2.40032e-10
-2.88545e-10
-2.33744e-10
-2.27413e-10
1.00446e-11
2.72299e-10
-6.25169e-11
-5.7611e-10
-6.28267e-10
-2.45865e-10
8.77437e-11
1.53948e-10
7.29431e-11
4.34468e-11
-9.0601e-12
-1.80061e-11
1.28948e-10
2.42185e-10
9.5204e-11
-2.41263e-10
1.331e-11
1.04434e-09
1.07118e-09
-1.99577e-10
-6.18374e-10
9.46071e-11
3.75349e-10
-1.07055e-10
-5.08398e-10
-6.34499e-11
-8.08547e-11
1.72626e-10
1.3869e-10
7.40184e-11
1.37029e-10
-4.66453e-11
-4.15417e-10
-3.60141e-10
8.30267e-11
3.67245e-10
3.15882e-10
9.42419e-11
1.28231e-11
2.38805e-10
4.36798e-10
3.31009e-10
6.59596e-11
-1.02957e-10
-5.93706e-11
-1.45947e-11
-2.93303e-10
-6.02466e-10
-2.29216e-10
3.60395e-10
2.14694e-10
-3.29893e-10
-2.06054e-10
4.64147e-10
4.84332e-10
-2.28189e-10
-2.86229e-10
3.09205e-10
4.29419e-10
1.13204e-10
-3.66136e-10
-4.35078e-10
3.03843e-10
9.81442e-10
6.37522e-10
-8.46858e-10
-1.51085e-09
-1.26787e-11
1.05052e-12
-6.8081e-10
-4.70921e-10
-8.02011e-11
5.13455e-11
1.48547e-11
1.92369e-10
-8.28166e-11
-8.86255e-10
-1.58558e-09
-2.23613e-09
-3.60179e-09
-5.53029e-09
-7.23169e-09
-7.66397e-09
-4.87757e-09
4.61538e-10
-2.03923e-09
-5.45884e-09
-5.13685e-10
2.46239e-09
5.63907e-09
5.52989e-09
2.73514e-09
3.17358e-10
-6.50229e-10
-6.20288e-10
-3.96405e-10
-1.6836e-10
-9.86222e-11
-1.89268e-10
1.66867e-10
-2.99977e-10
1.14486e-10
1.62504e-09
7.91414e-10
1.69198e-10
-1.759e-09
-1.91849e-09
-7.76569e-10
-2.60211e-10
-8.21134e-11
1.6333e-10
1.54418e-10
-1.68157e-10
-5.18107e-10
-4.98868e-10
6.63767e-10
1.55408e-09
1.2056e-09
6.73631e-10
1.8411e-09
3.21729e-09
4.08618e-09
4.03664e-09
2.15797e-09
-2.78447e-11
2.40059e-09
-3.51398e-09
-4.48905e-09
-1.79936e-09
-4.6816e-09
-4.61383e-09
-2.786e-09
-1.01151e-09
6.43945e-10
1.96934e-09
2.39462e-09
1.85871e-09
1.17036e-09
3.41954e-10
-2.53801e-10
1.41029e-09
-2.84741e-12
-5.76723e-10
2.4686e-10
-1.33961e-09
-3.24025e-10
-2.29446e-10
-2.24935e-10
1.89847e-11
-3.99344e-10
-5.43098e-10
-2.64244e-10
4.56416e-11
2.36081e-10
-4.79516e-11
-5.48836e-10
-1.73425e-10
4.25416e-10
1.3799e-09
2.45263e-09
3.38629e-09
3.8011e-09
3.62686e-09
1.83402e-09
-1.59099e-09
-2.11351e-09
-2.10866e-09
-6.00235e-09
-1.69055e-09
-3.32968e-09
-2.93644e-09
-1.56634e-09
-4.87289e-10
1.1551e-09
2.6621e-09
3.12165e-09
2.09769e-09
4.17359e-10
-7.05094e-10
-1.34317e-09
-1.42176e-09
-7.33832e-11
-7.63125e-10
1.12774e-09
1.37005e-10
-9.32758e-10
-5.3326e-10
-7.18535e-10
6.50064e-11
-1.92177e-10
-4.63276e-10
-1.77569e-10
2.27066e-10
4.17764e-10
2.41116e-10
-2.31834e-10
-9.51434e-11
1.50417e-10
1.13642e-10
-3.49379e-10
-1.09208e-09
-1.57929e-09
-1.93425e-09
-2.52112e-09
-2.8057e-09
1.68686e-09
3.42631e-09
-4.94433e-09
-2.13552e-09
-1.40985e-09
-1.92464e-09
5.75311e-10
5.64896e-10
-4.07029e-10
-9.12984e-10
-9.08633e-10
-4.95047e-10
-1.90633e-10
-1.62081e-10
-8.02365e-10
-1.45008e-09
-5.22395e-10
-6.18249e-10
5.53245e-11
1.59193e-09
3.02772e-11
-1.17307e-09
-1.68432e-09
6.08961e-11
8.06591e-10
3.03961e-10
-7.15285e-11
-5.60483e-11
3.25982e-10
1.91638e-10
-2.86102e-10
-2.78584e-10
7.26474e-10
1.17645e-09
1.24779e-09
1.06168e-09
3.97199e-10
-5.24349e-10
-4.22555e-10
-1.04733e-09
-1.76755e-10
9.84483e-09
2.42984e-09
-4.38471e-09
1.95989e-10
-3.25083e-09
-1.03022e-09
3.09844e-10
-9.8568e-10
-2.11293e-09
-2.19169e-09
-1.59862e-09
-5.12993e-10
8.60589e-10
1.17571e-09
-4.89348e-10
-8.59907e-10
-2.39893e-10
-1.14781e-09
2.36694e-09
3.21365e-09
1.62345e-10
-9.9732e-10
-5.38837e-10
7.93469e-10
2.60503e-10
-1.71167e-10
-4.3827e-10
-5.02154e-11
5.09982e-10
5.08999e-10
-2.03436e-10
-1.0679e-10
2.84126e-10
9.53214e-10
1.82374e-09
1.61264e-09
3.66107e-11
-6.32986e-10
6.02051e-10
-2.28876e-09
2.33931e-09
9.793e-09
-1.45785e-09
-1.07376e-09
-2.92999e-09
-3.55424e-09
-6.38574e-10
-1.01406e-10
-1.85819e-09
-3.43366e-09
-3.19446e-09
-1.47049e-09
7.53018e-10
2.31496e-09
1.44339e-09
-7.21484e-10
-7.49166e-10
-1.7623e-09
4.75014e-10
3.19921e-09
4.30016e-09
7.07382e-10
-1.14132e-09
9.85042e-10
1.17886e-09
8.99615e-11
-4.13599e-10
-1.29033e-09
-3.09002e-11
1.33208e-09
5.71023e-10
-1.09649e-10
1.32013e-10
9.48757e-10
2.01167e-09
2.15326e-09
1.18872e-09
1.66458e-10
3.2684e-10
-1.00838e-09
-1.77516e-09
1.16872e-08
4.85872e-09
-3.56704e-09
4.62322e-10
-9.82318e-10
-7.83572e-10
3.72268e-10
-1.23812e-12
-7.46482e-10
-8.62664e-10
3.57298e-10
3.00836e-09
4.65551e-09
3.76671e-09
1.15104e-09
-6.64382e-10
-1.59111e-09
-2.0245e-09
1.28445e-10
6.55322e-09
3.34546e-09
-7.45434e-10
-6.08318e-11
1.34828e-09
9.52122e-10
5.12845e-10
-4.24542e-10
-1.70699e-09
8.3479e-10
1.75495e-09
6.46623e-10
5.01232e-10
6.09766e-10
4.59438e-10
7.50897e-10
1.58228e-09
3.19236e-09
2.00266e-09
-1.54152e-10
-1.03959e-09
8.34812e-09
5.08303e-09
-6.1023e-09
1.20539e-09
2.55434e-09
5.69049e-10
5.15652e-10
9.49324e-10
1.24677e-09
1.12798e-09
7.94718e-10
1.21525e-09
4.09263e-09
5.13841e-09
2.9507e-09
5.47696e-10
-1.29139e-09
-2.41994e-09
-1.18392e-09
3.28615e-09
6.53699e-09
1.05752e-09
-7.42189e-10
5.13345e-10
9.03514e-10
4.26394e-10
1.09947e-09
-8.33325e-10
-3.56078e-09
-1.17662e-10
1.07199e-09
-3.15836e-10
-9.74454e-10
-6.44039e-10
-6.28971e-10
1.05158e-09
3.92249e-09
2.34366e-09
2.39343e-10
-1.18626e-09
2.24512e-09
7.76013e-11
-6.50713e-09
1.00034e-09
3.3961e-09
1.30885e-09
2.24984e-10