/*--------------------------------*- C++ -*----------------------------------*\
| =========                 |                                                 |
| \\      /  F ield         | OpenFOAM: The Open Source CFD Toolbox           |
|  \\    /   O peration     | Version:  5.0                                   |
|   \\  /    A nd           | Web:      www.OpenFOAM.org                      |
|    \\/     M anipulation  |                                                 |
\*---------------------------------------------------------------------------*/
FoamFile
{
    version     2.0;
    format      ascii;
    class       volScalarField;
    location    "50.4676134421789371";
    object      Vdiffuv;
}
// * * * * * * * * * * * * * * * * * * * * * * * * * * * * * * * * * * * * * //

dimensions      [0 2 -3 0 0 0 0];

internalField   nonuniform List<scalar> 
60000
(
2.93527e-09
5.8661e-10
4.29669e-10
1.61273e-09
1.43406e-09
1.20688e-10
9.11705e-11
2.89966e-10
-1.69884e-11
1.72851e-09
3.75342e-09
3.025e-09
6.08362e-10
-2.64997e-10
-8.08646e-10
-1.36318e-09
-2.52423e-09
-3.71999e-09
-5.67386e-10
6.49568e-09
1.27125e-08
1.13594e-08
9.66722e-10
-1.80612e-08
-4.05552e-08
-5.56118e-08
-4.45328e-08
-1.49554e-08
4.12542e-09
3.39491e-09
-1.83126e-10
-1.79228e-09
1.10127e-09
5.95708e-09
5.85416e-09
4.55891e-11
5.6617e-10
-6.10452e-10
1.39052e-09
3.88613e-09
3.13673e-09
5.22693e-09
1.82163e-09
-1.8437e-09
-9.18051e-10
6.54951e-10
-1.66891e-10
-8.82738e-11
-2.29903e-10
-1.60121e-09
-1.25387e-09
1.90092e-09
1.79623e-09
6.8198e-11
-6.11359e-10
-3.07137e-09
-5.20423e-09
-3.4588e-09
2.94179e-10
4.7575e-11
-2.58256e-10
2.74361e-09
1.97818e-09
2.66416e-09
1.54408e-08
3.073e-08
2.67978e-08
7.14755e-09
-2.35696e-09
3.81801e-11
9.56695e-11
-1.74333e-09
-8.0738e-09
-1.00149e-08
-2.97678e-09
2.34806e-09
-7.29579e-10
3.09738e-10
-5.13342e-09
-3.55816e-09
-5.67226e-09
-4.19744e-09
-1.56611e-09
6.93096e-10
3.77669e-10
1.15218e-09
7.72774e-10
-7.07957e-10
7.21206e-10
-1.25363e-09
-3.2557e-09
-4.03632e-09
-2.7463e-09
-5.01256e-10
1.79089e-09
2.94221e-09
4.15154e-09
7.2703e-09
2.97149e-09
-1.27293e-08
-2.23815e-08
-1.63466e-08
-4.72519e-09
8.44676e-09
2.6232e-08
4.11268e-08
3.73431e-08
1.79693e-08
-2.17996e-09
-1.01409e-08
-6.39255e-09
9.97585e-10
3.68489e-09
-1.41965e-09
-7.08607e-09
-4.79204e-09
-3.16209e-11
4.364e-09
3.95882e-09
-4.04793e-09
-1.79423e-09
2.45873e-10
-9.22332e-10
-2.53919e-10
3.22759e-10
-1.76276e-10
7.54009e-10
3.64178e-10
-2.79579e-10
7.17053e-10
-1.01719e-09
1.27035e-09
1.14917e-09
-1.8806e-09
-7.10262e-10
-2.37603e-10
-1.48367e-09
-1.91331e-09
-7.65531e-10
-5.10129e-09
-1.40991e-08
-8.42439e-09
4.68929e-10
-3.57226e-09
-8.00169e-09
-9.26652e-09
-1.20815e-08
-9.78142e-09
-6.49685e-10
2.58561e-09
-2.50621e-09
-4.84606e-09
-4.24026e-10
2.41977e-09
-1.20776e-10
-1.3099e-09
-2.35633e-09
-1.51878e-09
5.0665e-09
1.5655e-09
-2.41133e-09
1.88853e-09
3.75322e-09
-1.41663e-09
-2.88103e-09
-2.46621e-09
-1.10053e-09
1.24264e-09
1.97147e-10
8.96279e-10
-1.34314e-09
-1.80785e-09
5.0104e-09
1.21992e-09
-4.58449e-09
-5.37211e-09
-6.95141e-09
-6.33043e-09
-2.34319e-09
7.47293e-09
-5.38723e-09
-1.26074e-08
-1.77233e-09
-8.23631e-10
-6.56102e-10
4.25709e-10
-3.04402e-09
-3.33965e-09
2.01557e-09
1.39332e-08
1.31983e-08
1.48699e-09
-3.06901e-09
-3.36331e-11
2.37145e-09
8.28089e-10
3.01531e-10
-5.98345e-09
-3.05831e-09
3.64996e-09
1.68964e-09
-5.89988e-09
-1.56943e-10
7.78226e-10
-2.54271e-09
-2.95496e-09
-1.95556e-09
-1.05889e-10
8.05616e-10
-1.7382e-10
3.7807e-10
-7.53892e-09
-4.3875e-09
3.70071e-09
-1.82357e-09
-6.70829e-09
-4.41537e-09
-1.88159e-09
-2.62569e-09
6.32925e-09
9.74332e-09
-1.50493e-08
-1.02984e-08
1.07269e-08
1.77639e-08
5.52337e-09
-6.02788e-10
2.93406e-10
-3.87919e-09
-6.29114e-09
4.79575e-09
8.64721e-09
1.75276e-09
-2.642e-09
-1.23072e-09
-9.3485e-11
-3.82488e-10
-1.29606e-09
-6.21878e-09
-3.84844e-12
2.25862e-09
-9.35988e-10
-4.93865e-09
-1.05292e-09
-3.28367e-10
-1.55272e-09
-1.22998e-09
-1.36022e-09
-1.07372e-09
-1.98536e-09
-2.30881e-10
-3.87833e-09
-9.75095e-09
-1.43796e-09
5.97596e-11
-5.26961e-09
1.7126e-09
1.4408e-09
-1.47627e-09
5.12134e-09
2.47779e-08
-1.1334e-10
-1.62015e-08
1.17037e-08
1.01133e-08
-3.86672e-09
-2.38008e-09
3.75891e-10
-4.49762e-10
-6.39057e-09
-1.08277e-08
-2.02725e-09
7.46129e-09
5.9607e-09
4.2488e-10
-8.6935e-10
-9.48428e-10
2.32054e-10
-8.41198e-10
-3.6247e-09
-1.37514e-09
2.73272e-09
4.40769e-10
-1.05488e-09
-9.06838e-10
-1.13601e-09
5.30048e-11
8.04258e-10
-1.03741e-09
-3.40891e-09
-2.2983e-09
1.12048e-09
-6.59021e-09
-4.95926e-09
-4.4623e-09
1.85582e-09
8.44031e-09
5.21065e-09
-9.42838e-10
3.782e-09
2.77338e-08
1.88723e-08
-1.33788e-08
2.88421e-09
2.34684e-09
-1.86522e-09
1.32263e-09
1.1728e-09
9.3645e-11
-7.75629e-10
-4.57984e-09
-9.48121e-09
-6.15724e-09
4.85691e-09
7.97185e-09
2.04409e-09
-2.07471e-09
-1.64011e-09
8.86936e-10
-2.44395e-10
-9.50256e-10
-9.9928e-10
2.47052e-09
1.13313e-09
-1.61118e-09
-1.94547e-09
-1.91248e-09
1.94736e-10
8.87056e-10
-3.71841e-10
-2.66364e-09
5.53262e-09
3.20625e-09
-8.8997e-09
-7.74102e-09
6.97397e-09
1.24135e-08
5.87531e-09
-1.94373e-10
-1.16688e-09
2.17673e-08
2.7205e-08
-3.72928e-09
-1.47391e-09
-1.79867e-10
1.15237e-09
3.84448e-09
1.05996e-09
-6.37457e-10
-9.06557e-10
-9.23876e-10
-1.85359e-09
-5.47722e-09
-6.37257e-09
1.26956e-09
5.90469e-09
1.29598e-09
-2.49914e-09
-1.44829e-09
7.95264e-10
-4.96004e-10
-2.98044e-09
-7.35842e-10
-5.50239e-10
-2.70448e-09
-2.24759e-09
-1.3384e-09
-4.14278e-10
-2.98762e-10
-8.06258e-10
2.84335e-09
9.12731e-09
1.08128e-08
-8.7068e-09
-4.56887e-09
1.03949e-08
8.90662e-09
1.35181e-09
-3.79649e-10
-5.40277e-09
3.94429e-09
2.3428e-08
2.00709e-09
-1.09382e-08
-6.32825e-09
4.96e-09
4.42363e-09
-1.49261e-10
-1.30206e-09
-1.22346e-09
-9.30638e-10
-2.07341e-10
3.0163e-10
-1.7285e-09
-3.85477e-09
-1.11583e-09
2.29489e-09
9.25643e-10
-7.54558e-10
-4.80356e-10
1.1031e-10
-2.16567e-09
-2.45172e-09
-1.40414e-09
-2.41722e-09
-3.17003e-09
-1.53626e-09
-6.27918e-11
2.34876e-10
-2.04058e-09
-5.86936e-10
9.67866e-09
1.24974e-08
-7.93644e-10
3.79275e-10
9.71378e-09
6.64334e-09
2.80037e-10
-1.29332e-09
-1.95898e-09
-1.13614e-08
6.48468e-09
4.91314e-09
-1.95739e-08
-1.14081e-08
4.01755e-09
2.11117e-09
-1.09394e-09
-1.13994e-09
-9.30245e-10
-9.71555e-10
-6.60149e-10
3.1372e-10
1.13622e-09
5.8972e-10
-7.39255e-10
-2.68251e-10
1.17432e-09
1.24583e-09
5.60388e-10
1.45258e-10
-3.74101e-10
-9.92434e-10
-2.39785e-10
-2.23302e-09
-3.53466e-09
-1.1546e-09
1.36121e-10
-7.74285e-11
-8.56977e-10
-3.6024e-09
1.81682e-09
9.60806e-09
1.10189e-09
-1.76415e-09
5.80177e-09
6.13176e-09
1.93601e-10
-2.18474e-09
2.5999e-10
-7.29932e-09
-8.66818e-09
4.29382e-09
-1.11159e-08
-5.60884e-09
2.36013e-09
-1.50143e-10
-9.34631e-10
-5.4066e-10
-3.95122e-10
1.56153e-11
5.09835e-10
-4.02758e-11
6.22023e-10
1.5778e-09
1.56868e-09
5.75058e-10
1.79528e-10
4.14796e-10
3.66553e-10
-1.1603e-09
-8.55158e-10
1.77974e-09
1.01609e-09
-2.81786e-09
-3.48839e-09
-9.4853e-10
5.3601e-10
-1.12808e-11
-9.68292e-10
-2.81204e-09
-2.05214e-09
3.93254e-09
5.15694e-10
-4.75064e-09
3.66205e-10
2.03594e-09
-6.29357e-10
-1.76387e-09
-1.36041e-09
-1.89098e-09
-7.04981e-09
-1.86283e-09
3.97232e-10
8.58522e-10
-2.10914e-09
-1.35493e-09
-2.13524e-10
-2.77402e-10
-2.166e-10
7.53695e-10
2.25478e-09
1.7201e-09
-4.49853e-11
7.91806e-10
1.52723e-09
6.37356e-10
-1.62252e-10
4.92814e-11
9.50331e-11
-3.4678e-10
-1.76235e-09
7.47741e-10
8.13888e-10
-2.09657e-09
-2.90447e-09
-1.7702e-09
-3.07839e-10
1.73554e-10
-3.91243e-10
-3.5471e-09
-4.06935e-09
3.13347e-09
2.16427e-09
-5.46572e-09
-3.84171e-09
-2.07266e-09
-1.01604e-09
1.51777e-09
3.44738e-10
-1.60472e-09
-3.54931e-09
-6.40322e-09
1.29633e-09
-1.42696e-09
-4.23239e-09
-1.00066e-09
-4.3114e-10
-6.52081e-10
-1.44558e-10
5.9801e-10
1.94925e-09
2.55878e-09
2.23988e-11
-1.39445e-10
1.27462e-09
6.00042e-10
-2.04627e-10
-2.07967e-10
2.69127e-10
-6.97352e-11
-4.39466e-10
-5.16903e-10
-2.49384e-10
2.90358e-10
1.83249e-10
-5.34464e-10
-7.7793e-10
-3.8188e-10
6.26218e-10
-1.59176e-09
-5.80945e-09
2.54853e-09
8.2976e-09
-7.75223e-10
-4.55655e-09
-1.97315e-09
3.75361e-09
4.63239e-09
9.28053e-10
-1.12218e-09
1.33312e-09
2.09716e-09
1.28295e-10
-7.37576e-10
4.4442e-10
-2.52519e-11
-5.70575e-10
-2.99406e-10
1.47459e-10
-2.43763e-10
-3.15093e-10
1.20368e-09
2.57098e-10
-2.01502e-09
9.05993e-10
1.7365e-09
-5.03803e-11
-3.51742e-10
-2.1764e-10
-7.42499e-11
5.92682e-10
2.45457e-10
-2.97883e-10
-2.01302e-11
4.05649e-10
4.23352e-10
4.31194e-10
1.54174e-10
-3.20988e-10
-1.34735e-09
-4.00467e-09
1.33463e-09
1.07093e-08
2.85187e-09
-3.76369e-09
2.61095e-09
5.39152e-09
1.45824e-09
-8.66029e-10
-3.10745e-09
-2.8636e-09
1.04207e-09
5.76383e-10
-1.30387e-09
-1.58711e-09
-1.09358e-09
-8.65185e-10
-4.01625e-10
9.98788e-11
-1.5848e-10
-7.33634e-10
-3.3965e-10
1.31995e-10
-2.94635e-09
-2.49466e-09
1.87147e-09
1.06416e-09
-5.05162e-10
-4.23135e-10
-2.71489e-10
5.72235e-10
7.88354e-10
-5.96719e-10
-1.26437e-09
-1.01646e-10
3.76005e-10
2.81996e-10
5.62086e-10
5.57636e-11
-2.10344e-09
-3.7097e-09
1.50895e-09
7.33655e-09
5.01217e-10
-2.43317e-09
2.81281e-09
2.48929e-09
-3.96801e-10
-6.2311e-10
-9.77753e-10
-3.5422e-09
-3.4919e-09
-1.33768e-09
1.29435e-09
1.52103e-09
-2.78341e-09
-3.5175e-09
6.27104e-11
1.32107e-10
-1.08824e-09
-1.7359e-10
-3.2663e-10
-1.24305e-09
-2.21477e-09
-5.00803e-09
-2.27153e-09
1.7042e-09
1.02415e-09
-1.61593e-10
8.39922e-11
-9.39963e-11
-5.70137e-10
-1.35535e-09
-1.13181e-09
-2.43679e-10
-1.47942e-10
-7.10957e-10
1.19766e-10
2.12829e-10
-1.99213e-09
-2.95294e-09
1.28699e-09
2.49578e-09
-1.89988e-09
-8.72406e-10
2.52798e-09
1.14112e-09
-9.39536e-10
-6.0068e-10
-2.7563e-10
-2.06484e-09
-2.7099e-09
1.21556e-09
4.52002e-09
4.14292e-10
-1.21109e-09
1.84584e-09
-2.18467e-09
-4.92711e-09
-2.66978e-09
-1.63177e-09
-2.33097e-10
-5.77481e-10
-1.40475e-09
-2.03142e-09
-4.00835e-09
-1.60459e-09
1.31449e-09
9.09201e-10
8.15539e-10
-1.92989e-10
-1.50172e-09
-1.20511e-09
-1.51386e-09
-7.3526e-10
1.0953e-10
-2.28367e-09
-3.08135e-09
-9.96082e-10
-1.74794e-09
-3.06299e-09
-5.31539e-10
3.66909e-10
-1.14673e-09
-2.92851e-10
1.14684e-09
1.00988e-09
-3.64628e-10
-3.84747e-10
4.95647e-10
-8.99929e-10
-1.32399e-09
-1.71066e-10
-2.42598e-09
-2.53632e-09
-2.85135e-10
-1.71424e-09
3.05764e-10
4.62123e-09
3.57018e-09
-7.0995e-10
-1.9842e-09
1.12296e-09
1.24971e-09
4.27622e-10
-3.35278e-10
-2.11257e-09
-1.57551e-09
1.1181e-10
-9.03996e-10
8.82528e-11
2.86874e-10
-1.99525e-09
-2.45509e-09
-1.13898e-10
3.24503e-10
-4.07593e-10
-1.58375e-09
-1.53873e-09
-1.21995e-11
-2.51259e-10
-1.09957e-09
-7.3966e-10
-1.34712e-10
-6.62005e-12
2.00192e-10
3.4584e-10
-3.70663e-10
-7.63089e-10
2.2242e-10
7.92135e-10
-1.6155e-10
-1.2616e-09
-1.18717e-09
-7.88463e-11
4.61553e-10
1.03704e-09
1.68535e-09
1.91346e-09
2.31126e-09
1.14295e-09
-1.93886e-09
-1.68103e-09
6.10613e-10
1.03831e-09
9.9149e-10
3.94704e-10
-6.27574e-10
-1.0603e-09
1.71086e-10
-5.8536e-10
-3.69038e-10
7.28576e-10
6.66405e-10
-7.98021e-10
-1.68543e-09
3.50141e-11
2.57583e-09
1.95952e-09
8.51702e-10
5.25199e-10
-1.85895e-10
-7.0969e-11
4.67649e-10
5.56971e-10
9.64826e-10
1.88413e-09
2.16737e-09
8.35061e-10
-6.85715e-10
-2.16709e-10
9.91498e-10
9.67033e-10
3.81634e-10
9.75491e-11
-1.24006e-10
-6.18816e-10
-1.13471e-09
-8.43026e-10
6.49765e-10
1.31964e-09
-1.36282e-09
-2.31428e-09
-2.41268e-10
2.98176e-10
1.98649e-10
-1.67264e-10
-7.50758e-11
3.46566e-10
-3.06568e-10
4.23686e-10
1.48704e-10
8.65401e-11
1.11052e-09
1.01563e-09
-1.83336e-10
-1.15598e-12
1.97935e-09
1.8627e-09
-1.04775e-09
-1.90166e-09
1.37706e-10
6.55647e-10
-3.20579e-10
-7.48683e-10
-7.58081e-10
-3.21748e-10
1.54695e-11
-4.48783e-10
-6.09553e-10
6.10367e-10
1.6592e-09
7.3999e-10
-9.31715e-10
-1.55462e-09
-1.12124e-09
-4.06768e-10
7.8466e-11
6.65328e-10
1.53659e-09
1.26734e-09
-1.11323e-09
-1.79788e-09
7.88042e-10
1.60769e-09
1.32529e-10
-5.28577e-10
-3.41603e-10
-3.8349e-10
-1.12982e-10
-5.30573e-10
-1.62509e-10
-1.35344e-10
-3.34684e-10
-4.4608e-10
-7.89272e-10
-4.66249e-10
7.5175e-10
2.13418e-10
-2.25606e-09
-2.28802e-09
-4.15143e-10
-1.80895e-10
1.07934e-10
1.218e-09
1.22058e-09
2.30394e-10
-4.52924e-10
-4.7998e-10
-2.2052e-10
-2.73412e-10
-7.62952e-10
-7.87194e-10
1.24309e-11
9.06477e-10
1.3602e-09
1.31609e-09
7.36499e-10
6.12148e-11
-4.68556e-11
4.606e-11
-3.2184e-10
-6.66707e-10
-3.8561e-10
-1.39339e-10
-4.34829e-10
-5.64415e-10
4.27959e-11
4.48325e-10
-1.602e-10
-2.02096e-10
-1.34626e-10
2.44381e-10
3.59355e-10
-2.44898e-10
-5.97253e-10
6.29871e-10
2.87372e-09
3.41316e-09
1.3455e-09
-3.91254e-10
-4.62673e-10
-2.67106e-10
-2.63359e-10
1.34409e-10
4.85325e-10
1.82997e-10
-2.03705e-10
-1.61587e-10
8.92134e-11
3.07879e-10
4.92907e-10
4.97707e-10
2.49374e-10
6.71964e-11
1.44001e-10
2.17193e-10
9.17383e-11
-7.19105e-11
-2.23946e-10
-4.82637e-10
-3.74296e-10
2.90372e-10
2.9128e-10
-3.28475e-10
-4.55411e-10
-2.3081e-10
-2.53122e-10
-2.68987e-10
-9.45055e-10
-6.67878e-10
-5.0483e-11
3.77635e-10
1.15193e-10
-1.5576e-10
3.19932e-10
1.2458e-09
1.41244e-09
8.1493e-10
4.94554e-10
2.71173e-10
2.4628e-11
-1.06051e-10
-1.39946e-10
-1.58696e-10
-6.98702e-11
2.44618e-11
3.29884e-11
1.62795e-10
5.34726e-10
9.36817e-10
9.5745e-10
3.60693e-10
-2.94054e-10
-4.01305e-10
-5.60084e-11
2.37556e-10
6.11232e-11
-2.73514e-10
-1.0825e-10
3.58255e-10
2.38691e-10
-2.42903e-10
-1.20767e-10
4.1491e-10
7.35485e-10
4.33744e-10
-3.27996e-10
-8.77017e-10
4.40615e-10
1.13166e-10
7.81744e-11
-7.60535e-10
-3.0097e-09
-4.24714e-09
-2.85568e-09
-1.2897e-09
1.65908e-10
6.65699e-10
3.15813e-10
-2.0077e-09
-5.57004e-09
-1.01105e-08
-1.59561e-08
-2.30178e-08
-2.81331e-08
-2.71848e-08
-1.76913e-08
-2.78764e-09
3.75998e-09
4.01695e-09
1.19601e-09
-2.17177e-09
-6.71072e-09
-8.65642e-09
-2.39089e-09
3.01688e-09
1.44565e-11
-8.42127e-09
-1.78866e-08
-2.06565e-08
-1.44077e-08
-1.81869e-09
3.29691e-09
-2.66475e-09
7.37743e-09
2.22901e-09
-5.83513e-10
3.34173e-10
1.2188e-09
8.27255e-10
1.78939e-10
-4.67504e-10
-9.37508e-10
-2.19745e-09
-1.68258e-09
8.90779e-10
2.47365e-09
2.61349e-09
3.507e-09
4.17866e-09
4.19308e-09
3.32658e-09
1.54798e-09
1.34138e-09
3.15051e-09
3.4148e-09
9.81875e-10
1.52647e-10
1.93824e-09
-8.69151e-10
3.19146e-09
-2.33512e-09
-9.64158e-09
-1.2976e-08
-1.25516e-08
-9.16233e-09
-2.81881e-09
4.68668e-09
1.12276e-08
1.0032e-08
4.0416e-09
-3.92e-09
-2.89231e-11
1.7849e-09
-1.59819e-08
-9.69475e-10
-1.04106e-09
2.90996e-12
-2.21609e-10
-9.62692e-12
-4.32868e-10
7.1211e-10
3.5844e-09
6.72335e-09
5.20107e-09
2.01766e-09
-1.79897e-09
-3.22127e-09
-2.90813e-09
8.43531e-11
3.34904e-09
6.7439e-09
1.15348e-08
1.93073e-08
2.78562e-08
3.14599e-08
2.47852e-08
5.47962e-09
-1.64651e-08
-2.66304e-08
-1.44602e-08
-2.61973e-11
6.2856e-09
1.20538e-08
9.69572e-09
2.32273e-09
6.18371e-10
7.07173e-09
1.66247e-08
2.16584e-08
1.87418e-08
9.10533e-09
-4.56946e-09
-7.40733e-09
-2.04524e-09
1.53089e-10
3.4541e-09
-1.97117e-09
-2.84844e-09
2.78757e-10
4.84957e-11
1.29762e-10
-1.17291e-10
4.31713e-10
1.40222e-09
-2.08595e-10
-1.41754e-09
-2.30742e-09
-2.08365e-09
-6.33667e-10
-1.40465e-10
-1.24033e-09
-2.94849e-09
-4.38081e-09
-4.86379e-09
-5.93136e-09
-7.01056e-09
-5.26082e-09
-4.8903e-09
-1.42224e-08
-1.52752e-08
-1.49146e-09
-2.07824e-09
-4.26208e-09
-2.76377e-09
-4.25219e-10
-4.63704e-10
-3.95925e-09
-6.31882e-09
-5.47992e-09
-4.40403e-09
-3.38055e-09
-2.4283e-09
-2.43361e-09
-4.11715e-09
-4.71316e-09
7.49611e-09
8.35057e-10
-3.90295e-09
-3.66591e-10
1.67899e-09
-5.29634e-10
-2.56609e-09
-3.406e-09
-1.80777e-09
3.48756e-10
1.01727e-10
1.22917e-09
4.4845e-10
1.61959e-10
4.94747e-10
-1.35397e-09
-3.86556e-09
-3.85736e-09
-2.74405e-09
-3.53667e-09
-4.7565e-09
-1.10085e-09
1.18916e-08
8.36714e-09
-1.07422e-08
-4.25177e-09
-7.3076e-10
-2.61095e-09
-3.13476e-09
-8.84638e-10
2.76753e-09
-2.94177e-10
-6.08706e-09
-6.58074e-09
-3.38863e-09
-3.74527e-10
1.69594e-09
7.33354e-09
7.79803e-09
-3.27821e-09
2.62642e-09
8.61605e-09
3.04902e-09
-7.0512e-09
4.10816e-10
5.50667e-10
-1.08871e-09
-2.14604e-09
-2.79615e-09
-1.06413e-09
-2.4479e-11
-1.4222e-09
5.91567e-10
3.73199e-10
8.22051e-10
1.15715e-09
2.35959e-09
5.41482e-09
5.16672e-09
3.86461e-09
1.99795e-09
-2.66407e-09
2.51777e-09
1.27805e-08
-3.24104e-10
-7.00299e-09
4.44766e-09
8.66761e-09
3.03973e-09
-1.60056e-09
-1.58544e-09
9.61082e-10
2.9043e-10
-5.58964e-10
1.32826e-09
2.36373e-09
7.30647e-10
-8.83044e-10
5.87574e-09
-2.12718e-10
-9.97178e-09
7.25465e-09
1.01067e-08
-5.00366e-09
-5.37817e-09
8.44614e-10
3.44872e-10
-7.25953e-10
-1.56879e-09
-2.33059e-09
7.12395e-10
-9.14721e-10
-3.33389e-09
7.02506e-10
1.02977e-09
1.14791e-09
5.09868e-09
8.06808e-09
2.61414e-09
4.60736e-10
2.31065e-09
-2.24816e-09
-3.71282e-09
1.73129e-08
1.27357e-08
-7.87977e-09
4.01437e-09
8.30023e-09
2.56739e-09
7.60811e-11
-2.00717e-09
-2.33231e-09
-6.31904e-10
-7.74771e-11
1.13904e-09
4.99778e-09
5.35349e-09
1.71936e-09
2.04175e-09
6.55022e-09
-8.36125e-09
-7.94181e-09
-1.79237e-09
6.42311e-09
-6.04756e-09
-9.66519e-10
2.85527e-09
2.47133e-10
-2.15921e-10
1.10627e-09
1.59719e-09
3.78811e-09
-4.33536e-09
-6.33989e-09
-9.69152e-10
1.80104e-09
7.64105e-09
6.6779e-09
2.12152e-09
-9.89101e-10
9.45321e-11
-1.64524e-09
-7.75034e-09
1.72003e-08
2.06179e-08
-6.65254e-09
9.77792e-10
3.27951e-09
-6.29349e-11
1.32799e-10
-1.81235e-10
-4.75671e-10
3.70701e-10
3.81318e-12
-3.51382e-09
-3.53704e-09
3.4124e-09
5.79528e-09
2.66821e-09
5.07171e-09
2.27425e-09
-1.23393e-08
-1.29164e-08
6.55043e-09
3.2495e-09
-1.49556e-09
-2.16499e-10
2.97956e-09
4.2829e-09
9.71506e-10
3.2202e-09
6.56823e-09
6.58343e-09
-8.54759e-09
-8.74238e-09
1.45395e-09
8.85129e-09
5.47959e-09
-2.26741e-09
-4.18734e-09
-1.6758e-09
-1.61948e-09
-8.81131e-09
1.25737e-08
2.19794e-08
-3.36934e-09
-1.28034e-09
-8.07473e-10
-1.72611e-09
1.30516e-10
5.29312e-10
4.97517e-10
1.25288e-09
1.89723e-09
1.79516e-10
-4.71682e-09
-5.03645e-09
1.74297e-09
4.44381e-09
2.95367e-09
5.07186e-09
-3.18901e-09
-7.26928e-09
-3.96169e-09
1.10663e-08
1.86148e-10
7.28528e-10
9.22582e-09
6.17394e-09
-2.80821e-09
-2.98584e-09
6.33809e-09
9.1725e-09
1.17162e-09
-8.64891e-09
2.73489e-09
8.78244e-09
-1.71371e-09
-7.0108e-09
-2.60599e-09
-4.25309e-10
-1.6161e-09
-4.46252e-09
6.05444e-09
1.70396e-08
-7.56659e-10
-5.50548e-09
-7.39949e-09
-2.50364e-09
1.02179e-09
6.60657e-10
-7.12989e-11
2.40426e-10
1.16194e-09
8.47802e-10
-2.01466e-10
-2.42728e-09
-2.69473e-09
6.17623e-10
1.88029e-09
2.53343e-09
3.64557e-09
1.34537e-09
-5.5117e-09
3.06417e-09
7.10864e-10
1.11141e-08
1.59788e-08
5.91713e-09
-1.50144e-09
-5.14676e-09
-4.16876e-10
8.46308e-09
3.2176e-09
-6.00526e-09
3.44711e-10
2.23298e-09
-3.24795e-09
-1.57286e-09
4.05162e-09
8.83387e-10
-1.07923e-09
2.89993e-09
2.11721e-09
9.19034e-09
1.29553e-09
-1.22567e-08
-8.00174e-09
1.53137e-09
1.51361e-09
-1.72565e-10
-4.42494e-10
5.35541e-10
1.54881e-09
-2.045e-10
-1.35976e-09
5.42745e-10
7.82129e-10
-5.44865e-11
3.40319e-10
2.284e-10
2.48879e-09
3.86108e-09
4.82034e-09
-8.58487e-09
-2.82299e-09
1.36282e-08
1.38637e-08
4.27946e-09
4.38005e-10
8.7806e-10
-1.35834e-09
1.88687e-09
4.98945e-09
-4.46436e-09
-3.21613e-09
2.3054e-09
3.47395e-09
5.15856e-09
4.49542e-09
-2.82311e-10
-2.43859e-10
6.27061e-09
6.15674e-09
9.29775e-09
4.13563e-09
-8.7577e-09
1.6175e-09
4.70347e-09
8.77722e-10
-5.55399e-10
-6.63502e-10
3.98269e-10
2.05424e-09
9.01007e-10
-3.38794e-09
-1.73642e-09
2.18965e-09
1.65287e-09
9.89008e-11
-5.1594e-11
-1.07362e-09
-4.80116e-10
9.23923e-09
-4.61575e-09
-5.98396e-09
7.50847e-09
5.54832e-09
4.45697e-10
7.55684e-11
8.01308e-10
1.84635e-09
2.62643e-09
4.73518e-09
-7.90585e-10
-4.44039e-09
3.42775e-09
6.34031e-09
4.92383e-09
1.26542e-09
-8.26015e-10
-7.63783e-10
3.85351e-09
8.42524e-09
6.90866e-09
-7.69923e-10
1.32827e-09
4.83035e-09
2.26213e-10
-1.10772e-09
-1.60072e-09
-1.18806e-09
-3.56734e-10
8.88237e-10
2.32784e-09
-1.37708e-09
-4.673e-09
-9.28971e-10
1.53898e-09
3.51877e-11
-6.16496e-10
-6.36131e-10
-4.56383e-10
1.13677e-10
2.78824e-09
2.3775e-09
-1.53695e-10
-2.565e-09
-1.61496e-09
-1.63914e-10
-5.73447e-10
-1.1071e-09
3.58797e-09
8.35622e-09
3.86719e-09
-4.59235e-09
9.18589e-10
4.9619e-09
2.18849e-09
-5.10808e-10
-8.06461e-10
-1.64495e-09
2.41706e-12
2.50171e-09
-2.44351e-09
-4.15053e-09
-1.99949e-09
-4.909e-09
-3.34427e-09
-2.49365e-09
-1.99062e-09
-4.91869e-10
-3.88738e-10
-1.98854e-09
-2.60899e-10
1.20504e-09
-3.24089e-09
-3.28524e-09
-3.43445e-10
6.48858e-10
-2.70902e-10
2.65246e-10
3.9733e-10
-1.22681e-09
1.5833e-09
7.18394e-10
-4.225e-09
-2.86072e-09
-1.61849e-10
2.59548e-10
7.21213e-11
-1.93659e-09
3.16794e-11
9.75035e-09
8.07459e-09
-3.78431e-09
-2.448e-09
1.38682e-09
-2.32178e-10
-1.43026e-09
-6.54134e-10
-1.18263e-09
-1.51518e-09
2.39982e-09
1.34229e-09
-5.91969e-10
-1.82714e-09
-1.96115e-09
-8.85107e-10
7.7285e-10
1.35051e-09
1.77258e-10
-7.43995e-10
-1.441e-09
-2.20023e-09
4.65818e-10
-2.72836e-10
-2.73288e-09
-5.28162e-10
5.4474e-10
3.44389e-10
2.17121e-10
9.13997e-10
-1.69302e-10
-6.57558e-10
-1.34179e-09
-1.49863e-09
-3.8491e-10
4.37985e-10
4.451e-12
-6.55763e-11
-9.11662e-10
-2.21856e-11
9.1731e-09
8.95628e-09
-2.56097e-09
-3.29472e-09
3.2094e-10
7.08881e-11
2.97268e-10
5.62318e-10
-3.4009e-10
-1.62476e-09
-2.16105e-10
2.18352e-09
-1.88465e-10
-1.97481e-09
1.5654e-10
4.37866e-09
4.19492e-09
6.66244e-10
-3.54075e-10
1.78318e-10
2.81393e-10
1.45868e-10
-3.03539e-10
5.38819e-10
-1.54262e-09
-1.0859e-09
8.68106e-10
6.02447e-10
6.04388e-10
9.74808e-10
2.81468e-10
-1.02598e-09
-8.13193e-10
-2.60316e-10
-1.98471e-10
9.82654e-11
9.84215e-11
-1.85682e-10
-4.3203e-10
6.07879e-10
8.98589e-09
1.08595e-08
-1.33549e-10
-1.84344e-09
2.52083e-09
3.17449e-09
2.64742e-09
7.45153e-10
-3.2692e-10
8.64466e-11
-8.58533e-10
-2.46378e-09
-3.5022e-09
4.84366e-10
8.07466e-09
6.55368e-09
-2.16874e-09
-4.18667e-09
-1.31914e-09
9.13815e-10
1.64703e-09
-7.31722e-10
-1.48117e-09
-6.07515e-10
-2.81502e-10
-1.97155e-09
-8.36582e-10
4.29754e-10
4.7372e-10
1.7556e-10
-1.96022e-10
-8.12898e-10
-1.142e-09
-1.3327e-09
-8.40248e-10
-2.51947e-10
3.15233e-10
1.34559e-10
-3.66729e-10
1.15786e-09
6.56534e-09
8.00568e-09
1.98034e-10
-7.47878e-10
4.20551e-09
4.14776e-09
1.39988e-09
-4.70059e-10
-1.32423e-10
5.98409e-10
-8.90305e-10
-3.15989e-09
-6.89753e-10
6.01211e-09
5.33763e-09
-3.00422e-09
-2.20513e-09
2.05005e-10
-4.71703e-09
-5.32367e-09
-2.20604e-10
8.08547e-10
-3.18082e-09
-2.89111e-09
-5.32827e-10
4.43502e-10
-7.80108e-10
-1.04781e-09
-3.77519e-10
-8.35081e-10
-3.98241e-11
-4.36799e-10
-1.71423e-09
-1.93367e-09
-1.04453e-09
-2.67036e-11
-4.50244e-11
-3.78563e-10
-2.24518e-11
1.35581e-09
2.65538e-09
1.08111e-09
-1.15936e-09
8.74039e-10
1.87377e-09
-5.71345e-10
-1.69971e-09
-5.40263e-10
1.21249e-10
-6.2644e-10
-9.67342e-10
3.70959e-10
2.446e-09
6.53413e-10
-3.32471e-09
-1.24244e-09
-6.05127e-10
-2.86129e-09
1.80403e-10
8.09396e-10
-2.27186e-09
3.08358e-09
4.63995e-09
-9.05484e-10
-1.37642e-09
3.35284e-10
9.33539e-10
-2.96814e-10
-1.19221e-09
-1.69586e-09
-1.54761e-09
-1.72902e-10
3.67745e-10
-1.70086e-10
-4.15811e-10
-2.94849e-10
-1.28395e-10
4.91735e-10
2.62868e-09
3.47138e-09
2.95331e-10
-2.38089e-09
-2.17907e-10
1.37142e-09
-2.46269e-10
-1.21631e-09
-9.81663e-10
-3.53753e-10
4.02977e-11
-1.01908e-10
-3.4019e-10
-4.96525e-11
-6.28588e-11
-7.30802e-10
-1.02078e-09
-1.53567e-09
-8.12933e-10
1.68696e-09
3.23339e-09
1.5333e-09
-2.02643e-09
1.6653e-10
6.75083e-09
4.15688e-09
-1.21678e-09
-7.69172e-10
1.41375e-09
1.65408e-09
-1.26816e-10
-6.37455e-10
-8.29953e-10
-8.18474e-10
3.39387e-10
1.12901e-09
9.32625e-11
-1.0359e-09
-1.08754e-09
-2.27159e-10
2.06105e-09
4.02115e-09
1.92469e-09
-8.46902e-10
-3.6052e-10
6.31594e-10
4.76259e-10
8.18964e-11
-4.18827e-11
-2.53602e-10
-5.61867e-10
-4.09303e-10
-7.70202e-11
-1.63503e-10
-3.07015e-10
-4.95874e-10
-9.88916e-10
-1.2521e-09
-9.18047e-10
2.25829e-10
1.86021e-09
1.76735e-09
-2.02842e-09
-2.80422e-09
1.55268e-09
4.24572e-10
-1.89549e-09
-1.97004e-10
1.42546e-09
5.04699e-10
-5.75617e-10
1.0665e-10
6.32889e-10
1.74441e-10
-3.41627e-10
2.09719e-10
1.07587e-09
5.8937e-10
-9.73304e-10
-5.76613e-10
1.50483e-09
1.31477e-09
-6.49221e-10
-1.05301e-09
-1.94587e-10
-8.9455e-10
-1.44089e-09
-6.58863e-10
-1.36051e-10
-1.99505e-10
-1.93388e-10
6.76544e-11
2.97887e-10
-5.34958e-12
-8.27404e-10
-1.09803e-09
9.26933e-11
1.98398e-09
2.59313e-09
1.83145e-09
8.82219e-10
-2.28879e-10
-1.41139e-09
-1.33123e-09
4.99192e-10
7.76069e-10
-9.10437e-10
-5.95946e-10
-5.68067e-12
-2.66016e-10
-3.70736e-10
-3.35486e-10
1.91705e-12
4.79279e-10
1.13571e-10
-2.28011e-10
2.91194e-10
3.52272e-10
-7.96477e-10
-9.48882e-10
1.39477e-09
1.34609e-09
-1.71558e-09
-1.42015e-09
8.37574e-11
-1.38308e-10
-1.5869e-10
-5.51443e-11
-1.77604e-10
-1.14677e-10
-1.87569e-10
-3.25311e-10
-2.81573e-10
-1.02404e-10
5.13594e-10
1.31801e-09
1.17219e-09
2.43171e-10
-2.8242e-10
-1.82964e-10
-1.06494e-11
-2.24272e-10
-4.28344e-10
-3.61422e-10
-7.16942e-10
-1.11028e-09
-5.89969e-10
3.72383e-10
8.99917e-10
6.7785e-10
3.53578e-11
-2.68548e-10
-1.16419e-10
-1.13112e-10
-1.21987e-10
-8.33663e-11
7.75242e-11
3.35432e-10
2.69752e-10
3.97933e-10
1.55278e-09
2.45648e-09
1.40937e-09
1.02824e-10
-3.16442e-11
-1.52603e-10
-6.9227e-10
-9.4589e-10
-4.83157e-10
2.81739e-10
7.18113e-10
6.44926e-10
3.49149e-10
3.84433e-11
-3.37311e-10
-7.02893e-10
-7.919e-10
-5.68823e-10
-4.52902e-11
3.33738e-10
5.98164e-11
-2.74527e-10
2.48835e-10
9.87152e-10
3.60572e-10
-7.69409e-10
-6.37124e-10
3.44198e-10
7.51142e-10
2.91081e-10
-2.26759e-10
5.68797e-11
-3.94392e-10
-2.22131e-10
-2.70685e-11
-2.6393e-10
-4.16014e-10
5.89399e-11
4.65e-10
1.0302e-10
-4.08328e-10
-4.69231e-10
-3.03874e-10
-1.86479e-10
-1.66596e-10
-3.3455e-10
-5.00515e-10
-2.7482e-10
1.33582e-10
1.6179e-10
-3.01888e-11
5.5619e-11
3.01608e-10
1.04294e-10
-3.03614e-10
-3.06048e-10
-1.26047e-10
-3.87005e-11
2.5132e-10
3.60454e-10
-1.54705e-10
-2.89159e-10
3.44116e-10
8.26911e-10
6.88422e-10
6.17707e-11
-1.76027e-10
4.79808e-10
1.40117e-09
1.67135e-09
1.02844e-09
2.10929e-09
1.15669e-09
3.60656e-10
-1.74436e-09
-2.46388e-09
-1.57335e-09
-4.81051e-10
9.09942e-10
1.50893e-09
5.21669e-10
-1.4977e-09
-3.70522e-09
-5.89696e-09
-8.31e-09
-1.29881e-08
-1.85878e-08
-2.33666e-08
-2.86152e-08
-3.19712e-08
-1.81058e-08
4.79996e-09
3.18435e-09
6.15504e-10
1.73411e-09
5.8667e-09
7.87023e-09
5.98995e-09
2.04693e-09
-4.66257e-09
-1.3725e-08
-1.9576e-08
-1.70544e-08
-8.3219e-09
-1.09433e-09
7.24834e-11
1.58923e-10
5.01748e-09
3.54285e-09
7.35133e-10
1.73412e-09
2.77838e-10
8.90632e-10
8.13243e-10
1.67376e-09
2.0819e-09
1.46533e-09
7.21563e-10
-2.7253e-10
5.6478e-10
2.67425e-09
4.72507e-09
4.86819e-09
2.74806e-09
-4.48466e-10
1.23658e-09
4.82152e-09
1.00071e-08
1.54286e-08
1.6295e-08
2.8509e-09
-4.92109e-09
5.09229e-10
-4.43502e-09
-4.14087e-09
-6.54986e-09
-5.6221e-09
-3.85712e-09
-2.39508e-09
1.23703e-09
6.79018e-09
9.73808e-09
6.99413e-09
2.30313e-09
5.08976e-10
2.00665e-09
-1.333e-09
-6.84848e-09
9.91456e-10
2.05009e-09
-5.50843e-10
-3.61507e-09
-1.9932e-09
-1.31903e-09
4.01326e-10
5.58908e-10
-3.54751e-10
-9.9264e-10
-2.1221e-09
-3.05439e-09
-2.74029e-09
-1.13893e-09
8.47025e-10
2.96985e-09
6.10286e-09
1.07568e-08
1.68008e-08
2.13674e-08
2.55498e-08
3.13092e-08
2.58461e-08
-5.35266e-10
-1.75255e-08
-1.82262e-08
-5.99212e-09
-5.61236e-09
-7.62167e-09
-6.42295e-09
-3.02091e-09
3.68127e-09
1.25151e-08
1.84173e-08
1.81234e-08
1.1928e-08
3.07038e-09
-4.3316e-09
-4.99702e-09
-1.97915e-09
1.33878e-09
6.39816e-09
-3.56095e-09
-6.62216e-09
-1.05167e-09
-2.91701e-10
3.14602e-10
4.09621e-10
6.7154e-11
-1.40144e-10
-1.68687e-10
-3.87221e-10
-3.77968e-10
-5.13237e-10
-1.47069e-11
2.56605e-10
-5.68944e-10
-1.64872e-09
-2.80438e-09
-3.93492e-09
-5.79877e-09
-8.20664e-09
-7.5862e-09
-9.74493e-10
1.58478e-09
-8.6983e-09
-6.32757e-09
9.49446e-10
2.39216e-10
1.54659e-09
1.50835e-09
2.75016e-10
-8.44972e-10
-1.72582e-09
-3.35198e-09
-4.02482e-09
-2.58949e-09
-1.42786e-09
-2.65093e-09
-5.02439e-09
-3.73827e-09
6.24929e-09
2.44913e-09
-8.53198e-09
-2.94546e-09
1.0015e-09
-1.31196e-10
-5.65674e-11
1.61556e-10
2.66408e-10
1.73601e-10
-5.78584e-10
6.78918e-11
6.92725e-10
3.87376e-12
-4.70907e-10
-3.92508e-10
-5.00202e-10
-9.71698e-10
-1.70793e-09
-2.07204e-09
-3.03852e-09
-4.12651e-09
-1.17482e-09
1.43538e-08
9.14272e-09
-9.4712e-09
-7.70085e-10
-8.76713e-10
1.96665e-10
9.32704e-10
-2.16558e-09
-4.70066e-09
-4.38473e-09
-3.32809e-09
-2.13939e-09
7.60564e-10
5.21376e-09
7.02587e-09
1.9157e-09
-6.45508e-09
-2.38245e-09
1.37109e-08
4.06021e-09
-1.06835e-08
1.94812e-10
1.78254e-10
-3.26955e-10
-2.51866e-10
2.75497e-10
5.71022e-10
-7.46221e-10
-1.75315e-09
-5.70545e-10
1.39398e-10
1.69631e-10
1.71002e-09
3.39452e-09
3.0936e-09
-2.73956e-10
-2.75735e-09
-1.40155e-09
2.38992e-09
-3.41154e-09
-8.53145e-09
5.5551e-09
-4.24241e-09
-3.55538e-09
-1.46357e-09
-3.00226e-09
-9.84092e-10
-3.07601e-10
-2.37859e-09
-2.76801e-09
-8.24973e-10
1.04467e-09
1.80264e-09
2.12651e-09
4.03798e-09
3.90892e-09
-5.48901e-09
-1.36629e-08
1.0932e-08
2.44043e-08
-8.25591e-09
-3.67368e-09
6.53187e-10
2.67226e-10
4.5257e-11
1.23641e-10
1.10939e-09
1.44455e-09
-1.74469e-09
-3.15805e-09
-9.25777e-10
-3.52306e-10
1.04329e-10
9.67695e-10
-1.05603e-09
-2.65628e-09
-2.78564e-09
-2.77666e-09
2.15585e-09
-2.39023e-09
-1.50686e-08
1.48376e-09
9.15304e-09
-3.49975e-09
-7.67056e-11
-5.45661e-10
-1.44638e-09
-5.72162e-10
-3.05747e-10
-8.39484e-11
6.64829e-10
1.94103e-09
4.1026e-09
4.28119e-09
2.72887e-09
4.4355e-09
2.42313e-09
-1.25611e-08
-1.2119e-08
1.63343e-08
1.42403e-08
-6.58209e-09
-5.01185e-10
2.87391e-10
2.80649e-10
8.22258e-10
1.00691e-09
1.16024e-09
7.10754e-10
-3.42202e-09
-3.89564e-09
-1.01897e-09
2.65851e-11
-2.11979e-09
-6.36552e-09
-5.34748e-09
-2.40345e-09
-1.71026e-10
2.54824e-09
-2.58085e-09
-8.65803e-09
6.20038e-09
1.25754e-08
-2.33614e-09
-2.53507e-10
1.36345e-09
-3.33417e-10
-6.86359e-10
1.01749e-09
2.06884e-09
1.65813e-09
5.70064e-11
-7.60134e-10
1.91764e-09
2.68006e-09
2.03538e-09
4.55347e-09
-1.28917e-09
-2.12336e-08
-6.49323e-09
2.87742e-08
7.7162e-10
-2.19751e-09
-5.43206e-10
-5.93802e-10
-2.99708e-10
-1.95635e-10
-4.97122e-10
8.69654e-11
2.35093e-09
-5.60948e-10
8.36223e-10
3.97113e-09
-4.09545e-10
-4.86383e-09
-4.7382e-09
-3.764e-09
7.51842e-10
2.1001e-09
-3.52803e-09
-4.69702e-09
9.84373e-09
1.00092e-08
-1.37209e-09