/*--------------------------------*- C++ -*----------------------------------*\
| =========                 |                                                 |
| \\      /  F ield         | OpenFOAM: The Open Source CFD Toolbox           |
|  \\    /   O peration     | Version:  5.0                                   |
|   \\  /    A nd           | Web:      www.OpenFOAM.org                      |
|    \\/     M anipulation  |                                                 |
\*---------------------------------------------------------------------------*/
FoamFile
{
    version     2.0;
    format      ascii;
    class       volScalarField;
    location    "50.4676134421789371";
    object      Vdiffvv;
}
// * * * * * * * * * * * * * * * * * * * * * * * * * * * * * * * * * * * * * //

dimensions      [0 2 -3 0 0 0 0];

internalField   nonuniform List<scalar> 
60000
(
5.32265e-10
3.77183e-10
2.10783e-11
3.80564e-11
1.44209e-10
1.62575e-11
1.92563e-12
5.86342e-12
5.45558e-13
4.26951e-11
2.15193e-10
2.64873e-10
3.65323e-11
1.27186e-11
1.04464e-11
7.50812e-12
1.72596e-10
2.54767e-10
-5.88236e-11
-4.70259e-12
2.07439e-10
1.96652e-10
8.91551e-12
4.09275e-10
2.10549e-09
3.14904e-09
1.73876e-09
1.92377e-10
7.89269e-11
1.28398e-10
-8.87908e-12
-5.86042e-11
-4.98212e-12
1.88224e-10
2.86802e-10
9.17806e-12
4.97829e-11
-4.99857e-12
7.42331e-11
3.70315e-10
8.15517e-11
4.71391e-10
1.45805e-10
6.13132e-13
2.17409e-10
1.48121e-10
2.05232e-12
1.90972e-11
9.74492e-12
-4.46172e-11
-4.45828e-11
3.26129e-10
3.19524e-10
-1.37015e-11
1.7219e-10
6.46367e-10
1.25874e-09
1.37747e-09
1.63548e-10
1.16906e-09
3.6945e-09
2.36657e-09
1.41523e-10
1.14719e-09
3.75181e-09
4.17822e-09
2.03895e-09
2.69874e-10
6.70661e-12
3.17734e-10
1.02425e-10
4.02572e-11
-1.48919e-10
-3.35892e-10
-5.35132e-11
2.25461e-10
-3.68093e-11
3.34392e-10
-9.27494e-11
-4.83206e-10
1.41825e-11
5.48583e-10
1.93249e-10
1.7163e-11
3.02984e-11
2.12128e-10
7.99759e-11
-7.94591e-13
-9.31012e-12
-8.09024e-12
-7.91997e-11
2.13015e-10
4.86267e-10
1.20367e-10
1.92297e-10
5.28439e-10
5.81161e-10
9.99763e-11
7.99916e-11
1.15546e-09
4.32581e-09
2.88961e-09
1.09841e-10
1.59411e-09
2.46515e-09
-3.19624e-10
-2.23215e-09
-7.6593e-10
1.27457e-09
1.52318e-09
6.87562e-10
3.62752e-11
1.34802e-10
2.50649e-11
-1.82274e-11
2.3763e-10
-2.83526e-11
1.60036e-10
7.15968e-10
-3.45816e-11
-4.97711e-10
8.51434e-10
7.92138e-10
-5.04953e-11
-1.34899e-10
-1.6625e-11
9.94852e-11
-3.63613e-11
2.19435e-11
1.3496e-10
-6.37519e-11
5.1293e-10
1.35316e-09
5.57071e-10
1.11798e-10
6.90832e-10
6.49795e-10
-1.71994e-10
1.54059e-10
1.35362e-10
3.6762e-09
4.76061e-09
6.77519e-10
1.73344e-09
3.79507e-09
2.6261e-09
1.32535e-09
4.60426e-10
7.53975e-10
1.74038e-09
1.32879e-09
3.59573e-10
-6.64334e-12
3.01362e-11
-2.33317e-10
1.41803e-10
2.0058e-10
-3.0324e-10
5.82612e-10
4.63601e-10
-1.03587e-09
-1.15011e-09
1.06346e-09
1.96551e-10
-8.88398e-11
5.27418e-11
8.16265e-11
4.49282e-11
6.34758e-11
2.2614e-10
3.84604e-11
-2.02266e-10
1.96243e-09
2.19616e-09
-3.62757e-11
8.85559e-10
1.69276e-09
7.90439e-10
4.12612e-10
-1.5121e-09
-1.72584e-09
4.63221e-09
1.67762e-09
5.57063e-11
2.36543e-09
2.54296e-09
1.93927e-09
4.50891e-10
-1.97281e-09
-8.19686e-10
1.50223e-09
1.02124e-09
1.39008e-10
5.59285e-11
-1.39104e-10
-5.28373e-10
2.6443e-10
-2.67167e-10
-1.57727e-12
1.44851e-09
1.34338e-09
-2.87763e-09
-6.10711e-10
6.37138e-10
-1.11239e-10
5.88186e-11
1.05689e-10
7.44684e-11
1.4715e-10
4.62515e-10
6.42122e-10
-8.63308e-10
6.06422e-10
3.38239e-09
1.03369e-09
2.2693e-10
1.64915e-09
9.71616e-10
2.60952e-10
3.44026e-10
-5.73185e-09
-2.48467e-09
2.15641e-09
-7.88496e-10
-2.1361e-09
-1.84895e-09
-4.37276e-10
4.52593e-10
-9.09443e-10
-3.42441e-09
-1.41986e-09
1.29791e-09
1.05005e-09
4.40174e-10
4.79718e-10
-2.78387e-12
-1.25012e-10
9.39387e-11
-1.33573e-09
4.55343e-11
1.25027e-09
2.34953e-10
-2.53254e-09
2.56798e-11
4.9936e-10
2.3938e-10
1.71877e-10
-1.29622e-11
1.2909e-10
6.54759e-10
1.12738e-09
-9.81147e-11
-5.94585e-10
1.20344e-09
2.18063e-09
6.01979e-10
3.17784e-10
1.58853e-09
8.2007e-10
1.08125e-09
-3.24309e-09
-5.90018e-09
2.87911e-09
-4.01592e-10
-3.84879e-09
-2.91962e-09
-1.0512e-09
1.61269e-10
2.00933e-10
-1.35144e-09
-3.05583e-09
-1.84926e-09
4.56958e-10
1.37249e-09
1.12369e-09
8.07869e-10
2.51986e-10
3.45519e-10
-3.18363e-10
-1.4446e-09
-7.41438e-10
2.00841e-09
1.53682e-10
-4.78678e-11
9.94144e-10
8.91821e-10
3.65395e-10
7.20986e-11
1.43021e-10
7.56933e-10
1.4627e-09
8.00629e-10
-3.32726e-09
-2.57096e-09
2.07008e-09
1.08053e-09
-4.30459e-10
1.30181e-09
1.41701e-09
7.10109e-10
-4.81787e-10
-4.01229e-09
2.82055e-09
1.64911e-09
-4.53627e-09
-5.47289e-09
-2.52918e-09
-5.06689e-12
2.64945e-10
2.14769e-10
7.93009e-11
-1.12339e-09
-1.98423e-09
-6.84374e-10
1.16811e-09
1.41979e-09
8.20301e-10
2.85252e-10
3.13199e-10
-7.02996e-10
-9.96187e-10
4.78879e-10
1.35389e-09
6.44572e-10
1.22538e-09
1.27328e-09
4.22902e-10
3.34159e-12
3.54435e-10
1.01385e-09
1.79826e-09
1.11058e-09
-5.88188e-09
-4.25551e-09
2.39524e-09
1.34357e-09
-2.06667e-09
-9.10773e-10
1.85041e-09
-9.71634e-10
-1.66303e-09
9.22061e-12
4.11194e-09
3.44043e-09
-8.56534e-09
-9.45135e-09
-2.49847e-09
3.89623e-10
6.5029e-11
9.06167e-11
7.33523e-10
8.94582e-10
-1.16768e-10
-1.81663e-09
-1.57569e-09
3.78987e-10
1.17273e-09
5.69949e-10
2.46892e-10
1.90838e-10
-2.14535e-10
-4.59588e-10
8.2768e-10
1.00163e-09
1.19213e-09
1.19784e-09
5.28957e-10
-8.52403e-12
5.09009e-10
9.5111e-10
1.32817e-09
9.94227e-10
-2.95482e-09
-2.96657e-09
2.841e-09
-7.0686e-11
-5.04295e-09
-2.63263e-09
2.06888e-09
-2.41406e-09
-8.09472e-09
-4.8968e-10
6.87396e-09
1.85193e-09
-1.15384e-08
-8.49889e-09
-1.67417e-10
7.94758e-10
-1.60322e-10
-3.71766e-11
4.50037e-10
6.29674e-10
6.58253e-10
2.7486e-10
-9.13227e-10
-1.22754e-09
-4.43157e-11
6.26392e-10
4.38113e-10
4.23823e-10
6.95796e-10
-1.71145e-10
8.05119e-12
5.61231e-10
8.14209e-10
1.20448e-09
6.05064e-10
1.73007e-11
7.2093e-10
1.37199e-09
5.43068e-10
-6.1101e-10
-8.87105e-10
2.15071e-10
2.1475e-09
-3.51538e-09
-5.96876e-09
-9.27936e-10
2.33065e-09
-1.27757e-09
-1.14689e-08
-6.19502e-09
8.08839e-09
-3.98545e-10
-1.19235e-08
-4.53629e-09
1.57646e-09
6.91218e-10
-2.21299e-10
2.52091e-11
4.05531e-10
4.38534e-10
2.92577e-10
5.57788e-10
6.022e-10
-6.88655e-11
-6.2152e-10
-2.96079e-10
1.21292e-10
4.94616e-10
8.55234e-10
6.46934e-10
-7.53152e-10
-7.12538e-10
4.47139e-10
1.43078e-09
7.05342e-10
4.34012e-11
4.35328e-10
1.3121e-09
1.22579e-09
-9.81433e-10
-1.36622e-09
1.56439e-09
9.05741e-10
-3.44207e-09
-3.12985e-09
9.99689e-10
2.26692e-09
1.39013e-09
-5.76722e-09
-8.68106e-09
5.78387e-09
2.06007e-09
-7.7209e-09
-1.97999e-09
1.86384e-09
4.37953e-10
-1.52219e-10
1.89345e-10
5.08171e-10
4.70423e-10
2.25961e-10
3.54638e-10
6.06597e-10
4.95966e-10
1.02924e-10
-2.14274e-10
-2.71321e-10
-7.44706e-11
-2.22509e-10
6.83258e-10
-1.67783e-11
-9.66823e-10
-1.48991e-10
4.97047e-10
5.03971e-10
1.87088e-10
1.29853e-10
5.36771e-10
1.20346e-09
7.06423e-10
-1.17704e-10
1.51756e-09
1.59e-09
-3.79333e-10
-7.29919e-10
4.24347e-10
8.80436e-10
2.68927e-09
1.24652e-09
-8.09287e-09
5.02083e-10
3.38604e-09
-4.84427e-09
-8.51956e-10
1.5126e-09
2.41114e-10
-5.14158e-11
2.62337e-10
3.27793e-10
1.78412e-10
1.14878e-10
2.61433e-10
5.13928e-10
4.08288e-10
2.82796e-10
2.07537e-10
1.11278e-10
-2.32265e-10
-3.88118e-10
-1.71784e-10
7.52338e-10
8.78721e-10
3.99325e-10
-2.20148e-10
-1.24157e-10
1.62023e-10
2.5078e-10
4.31058e-10
5.83226e-10
-1.92632e-10
-1.82033e-10
1.8639e-09
2.63653e-09
8.04983e-10
1.59768e-09
1.39671e-09
-1.1101e-09
5.46008e-10
4.83297e-09
1.9977e-09
5.79511e-10
2.59357e-09
1.28117e-09
1.73005e-09
1.12614e-09
3.3022e-10
1.66657e-10
2.23287e-10
-2.51672e-10
-6.8889e-10
-2.09073e-10
2.08621e-10
5.09664e-10
7.52228e-10
5.19454e-10
2.21423e-10
1.63313e-10
9.02808e-11
4.8905e-11
1.39102e-10
1.11267e-09
2.16124e-09
1.8775e-09
7.50809e-10
1.95474e-10
-4.96781e-11
-3.31438e-10
-1.71798e-10
1.42103e-09
-2.58649e-10
-5.03464e-09
-1.79692e-09
2.58801e-09
3.01686e-09
1.99475e-09
-2.29047e-09
-2.7364e-09
4.10404e-10
2.45757e-09
2.88783e-09
1.6885e-09
1.1102e-09
2.0961e-09
1.62552e-09
1.116e-09
7.69498e-10
3.98413e-10
4.87978e-11
-3.56582e-10
-7.10786e-10
-3.41909e-10
2.01712e-10
7.76623e-12
5.92876e-10
8.64103e-10
2.70383e-10
1.26693e-10
2.81901e-10
7.5162e-11
-2.90505e-10
1.20327e-09
2.02996e-09
8.32427e-10
1.16076e-10
3.56992e-10
3.67415e-10
1.44432e-10
-2.89757e-10
9.95095e-10
2.22389e-09
-6.48848e-09
-8.55187e-09
6.27856e-10
1.41113e-09
-5.88049e-09
-7.43482e-09
-1.68483e-09
1.22501e-09
-7.75063e-10
-8.60977e-10
3.2283e-10
5.12805e-10
8.66006e-10
1.01173e-09
7.88944e-10
7.32243e-10
3.7035e-10
6.91649e-11
2.6942e-10
3.50002e-10
1.25864e-10
2.72787e-10
-3.20668e-10
-5.57283e-10
7.88176e-10
5.43773e-10
-2.14221e-10
3.47098e-10
3.49769e-10
-2.33087e-10
8.84584e-10
1.58254e-09
2.72393e-10
7.57577e-11
6.56916e-10
5.10349e-10
4.58994e-10
6.73926e-10
1.0999e-09
2.71825e-09
-2.90524e-09
-7.88533e-09
1.01439e-09
-2.29871e-10
-7.8607e-09
-5.43417e-09
3.81537e-10
9.90411e-10
-1.43485e-09
-1.75154e-09
-1.6212e-10
7.37296e-10
-3.23536e-10
-1.51866e-09
-5.63262e-10
4.83329e-10
4.8394e-10
9.76846e-10
1.06314e-09
6.95195e-10
6.3642e-10
4.88297e-10
-1.28958e-10
-1.73648e-09
-1.19404e-09
6.53982e-10
1.81075e-10
1.26915e-10
3.40493e-10
1.96482e-10
7.93065e-10
1.24954e-09
8.72719e-10
1.32233e-09
1.35479e-09
-4.8948e-11
1.40015e-10
1.48167e-09
1.80636e-09
1.73052e-09
-2.18165e-10
-6.02137e-10
1.83087e-09
-2.00991e-09
-3.91056e-09
6.53653e-11
1.51401e-09
-5.8409e-10
-2.41706e-09
-1.33437e-09
8.80793e-10
4.16023e-10
-9.58679e-10
3.61279e-10
1.43897e-09
6.29144e-10
8.02668e-10
-3.66022e-10
-2.16366e-09
-1.17436e-09
1.17825e-09
9.08028e-10
3.08303e-11
-2.12056e-10
-8.94649e-10
-2.24296e-10
6.00655e-10
4.74605e-10
3.02089e-10
2.40509e-10
5.09867e-10
1.15681e-09
1.1501e-09
5.44521e-10
1.51002e-09
5.86565e-10
-1.21293e-09
1.60224e-09
3.51894e-09
2.19963e-09
9.86051e-10
8.41598e-10
7.73781e-10
3.97262e-10
1.44216e-10
-1.54904e-11
4.1616e-10
7.48434e-11
-9.79794e-10
-5.64076e-10
7.29798e-10
7.17618e-11
-1.79779e-10
5.98579e-10
3.39845e-10
1.89581e-10
-7.72107e-10
-1.54934e-09
-1.34751e-09
-5.87944e-10
1.26333e-09
1.92199e-09
5.43463e-10
4.97549e-11
1.72213e-10
-4.11644e-10
-3.73968e-10
1.28152e-10
-4.14437e-10
-1.34623e-10
3.35174e-10
6.85943e-11
-1.15214e-09
-1.66617e-09
3.49641e-10
1.23486e-09
-2.71086e-09
-2.29012e-09
2.40983e-09
2.64101e-09
8.61746e-10
5.26434e-10
6.68444e-10
8.17781e-10
6.30126e-10
3.35219e-10
5.89368e-10
7.01034e-10
-8.85293e-11
3.96151e-11
8.52748e-10
5.93937e-10
8.72114e-11
1.0789e-10
3.50256e-10
5.02074e-10
5.964e-10
4.8485e-11
-9.06944e-10
-6.49202e-10
1.01839e-09
2.22112e-09
1.55229e-09
4.5586e-10
3.9527e-10
5.65629e-10
1.62953e-10
-2.41316e-10
1.6932e-10
-6.35885e-10
-4.64416e-10
6.85436e-10
-1.0255e-09
-2.9339e-09
-4.62272e-10
1.56203e-09
-2.77508e-09
-7.01568e-09
-2.78314e-09
1.24817e-09
8.75068e-10
4.67308e-10
4.21988e-10
7.27127e-11
-4.16626e-10
-1.01866e-09
-1.04093e-09
1.31138e-10
7.78599e-10
-3.04985e-10
-8.01098e-10
-9.83227e-12
4.55792e-10
6.21562e-10
8.59391e-10
8.77312e-10
5.56024e-10
-1.68516e-10
-9.4499e-10
-1.6159e-10
1.45345e-09
1.17612e-09
1.26857e-09
8.52465e-10
4.21315e-10
7.43842e-10
8.05819e-10
4.4582e-10
3.29598e-10
3.66499e-10
1.35822e-10
4.05314e-10
5.01853e-10
7.2993e-10
1.25194e-09
9.58467e-10
-2.96242e-09
-6.83258e-09
-2.95738e-09
2.09397e-09
9.2428e-10
-6.95349e-11
8.2055e-10
6.30108e-10
2.18795e-10
5.60275e-11
2.13481e-10
6.87424e-10
3.98421e-10
-7.8496e-10
-1.05827e-09
9.8083e-11
7.82957e-10
2.1198e-10
-3.02829e-10
1.24037e-11
3.17099e-10
1.44026e-10
-6.31839e-10
-3.00108e-10
2.2243e-09
-7.89429e-10
-4.32157e-09
-6.98288e-10
1.13957e-09
7.74585e-11
-6.12226e-10
-3.07394e-10
-4.45109e-10
3.014e-10
1.95976e-10
3.18338e-10
7.24234e-10
2.30134e-10
3.89967e-11
7.02293e-10
4.64388e-10
-1.10267e-09
-8.65002e-10
1.08096e-09
8.50113e-10
4.58119e-10
4.29025e-10
-1.27179e-10
-7.81623e-11
4.25647e-10
5.06744e-10
2.66495e-10
1.91178e-10
4.27788e-10
6.92912e-10
5.40597e-10
7.98623e-11
-2.40033e-10
-4.97101e-10
-8.41972e-10
-5.27301e-10
1.72539e-10
2.89678e-10
2.22976e-10
1.34233e-09
1.73345e-09
-1.78298e-09
-3.11492e-09
-2.85044e-10
1.07831e-09
1.52854e-10
-8.02094e-10
2.21849e-10
1.02805e-10
2.79175e-10
-1.14484e-10
-7.45998e-10
-4.13335e-10
6.46874e-10
6.07242e-10
-8.52879e-10
-1.20604e-09
1.68586e-11
6.58293e-10
3.35261e-10
6.11276e-11
-3.21546e-10
-8.03635e-10
-5.55643e-10
2.26583e-11
1.42956e-10
-2.80538e-11
-9.76329e-11
-1.07709e-10
-2.55376e-10
-3.25119e-10
-1.98415e-10
-1.79086e-10
-2.87852e-10
-1.57465e-10
2.06983e-10
3.71603e-10
2.95827e-10
5.85871e-10
9.5098e-10
6.06331e-10
1.76974e-10
3.48257e-10
4.88015e-10
2.73963e-10
3.64199e-10
5.24594e-10
2.84816e-10
-2.12331e-11
1.04824e-10
1.90383e-10
3.2722e-10
6.55657e-10
8.89089e-10
5.47299e-10
-4.11036e-10
-7.5528e-10
-3.90595e-11
4.31487e-10
2.9563e-10
1.73509e-10
2.81061e-10
1.15084e-10
-2.87444e-10
-1.83127e-10
2.86345e-10
3.15713e-10
-4.89212e-10
-1.41537e-09
-1.12778e-09
1.49989e-10
8.40011e-10
6.88229e-10
4.42224e-10
2.55441e-11
-3.45125e-10
3.47687e-11
4.08732e-10
-3.30633e-10
-6.75954e-10
3.28842e-10
9.17189e-10
2.9939e-10
-4.86622e-10
-2.67788e-10
6.5473e-10
8.58638e-10
1.08491e-10
1.21914e-10
2.22651e-12
-1.68573e-11
1.23111e-10
1.77395e-10
1.16485e-10
3.79726e-11
-4.27514e-11
-3.75174e-11
-1.12292e-11
8.09866e-11
2.94184e-10
4.93808e-10
7.08999e-10
1.09982e-09
1.41116e-09
1.19729e-09
5.16851e-10
5.2796e-11
6.13421e-11
-1.27992e-12
-1.47443e-12
-4.59314e-11
-1.11487e-10
-1.19659e-10
-1.13487e-10
-1.5567e-11
-3.48313e-11
9.76386e-11
5.13923e-10
5.11324e-10
2.02032e-10
-1.41976e-11
5.27385e-11
-5.77739e-11
2.60052e-10
3.92867e-11
5.06876e-11
7.96889e-11
5.49088e-10
4.77454e-10
8.08295e-11
1.07911e-10
6.71147e-10
1.0652e-09
5.13699e-10
7.84443e-13
2.13967e-11
1.75103e-10
1.40174e-10
-1.39968e-10
2.05685e-11
7.07391e-10
1.71536e-09
2.89085e-09
3.66984e-09
3.48189e-09
1.80265e-09
4.56103e-11
8.60976e-10
1.56008e-09
4.21875e-10
1.32685e-11
4.91778e-10
8.60803e-10
2.35066e-10
-1.23892e-10
-6.80003e-12
1.10403e-10
5.97812e-10
9.87999e-10
6.2346e-10
8.35327e-11
6.47328e-11
3.45484e-10
-4.93755e-10
-2.77971e-11
1.95209e-11
2.63408e-10
7.13625e-10
8.542e-10
1.46551e-10
9.06241e-11
3.29392e-10
5.52222e-10
3.69327e-10
-4.76559e-11
3.60216e-10
8.31901e-10
5.219e-10
1.08722e-10
-1.21445e-10
4.4212e-11
5.24373e-11
-7.53315e-10
-1.88149e-09
-2.15607e-09
-1.52469e-09
3.44412e-11
3.12861e-09
4.61288e-09
1.68254e-09
8.92689e-11
8.79007e-10
8.83714e-10
2.10913e-10
1.55565e-10
1.40437e-10
-2.26027e-10
-7.59887e-10
-8.65287e-10
-6.99693e-10
-1.21785e-10
6.07726e-10
1.04873e-09
6.46369e-10
3.03308e-11
-1.35691e-10
-1.35049e-10
2.03567e-10
1.38657e-09
4.40803e-10
8.47126e-11
3.90277e-10
3.81864e-10
6.74356e-10
1.63164e-10
1.69437e-10
1.20319e-09
7.47597e-10
3.42454e-10
-1.90515e-10
3.11749e-11
6.08214e-10
6.33713e-10
2.14139e-10
3.82399e-10
6.86855e-10
4.83443e-10
3.0226e-09
6.37496e-09
3.62777e-09
2.83298e-10
1.51985e-09
1.91592e-09
5.50257e-10
3.17521e-11
3.1492e-10
1.28915e-10
-3.02636e-10
-4.43175e-10
-1.33433e-10
1.04606e-10
1.71909e-10
6.22221e-10
9.12468e-10
1.12327e-11
3.56207e-10
-4.54674e-10
-8.07639e-10
1.66243e-09
1.37651e-09
-2.05229e-10
3.4227e-11
-2.82826e-10
7.95084e-13
3.98858e-10
-4.11819e-10
5.38968e-10
1.8958e-09
1.08791e-09
-5.46418e-11
-6.98668e-10
3.29981e-10
1.04388e-09
1.22308e-09
1.86846e-09
2.1589e-09
1.78229e-10
-7.05634e-10
5.02111e-09
5.98714e-09
9.16118e-10
1.58559e-09
3.08331e-09
1.57874e-09
-1.85152e-10
1.09147e-10
5.19954e-10
-1.81033e-10
-4.89501e-10
-1.99773e-10
9.70486e-11
-1.88576e-10
-2.11732e-11
6.37455e-10
2.60802e-10
4.44324e-10
4.41604e-10
-1.24596e-09
-8.39987e-10
1.47575e-09
-5.83291e-11
-5.3323e-10
-6.98133e-10
-1.12838e-09
-1.84696e-10
-2.26937e-10
-2.08937e-09
9.24357e-10
1.76396e-09
7.74757e-10
-5.14591e-10
-9.5756e-10
-6.37575e-10
-2.62143e-10
-1.57242e-10
5.27648e-10
1.01663e-09
1.62215e-10
2.29935e-09
4.47224e-09
1.693e-09
1.22119e-09
2.55232e-09
2.10226e-09
2.78506e-10
-4.63095e-10
4.603e-10
5.4097e-10
-2.84669e-10
-1.53475e-10
7.0937e-10
6.63118e-10
-5.83051e-10
3.37952e-10
8.14446e-10
-3.30286e-10
1.22552e-09
1.42621e-09
-3.429e-09
-4.67767e-10
3.83271e-10
-3.40018e-10
-7.22787e-10
-1.26061e-09
-5.26699e-10
3.31998e-10
-2.07951e-09
-2.82008e-09
1.25798e-09
1.50289e-09
3.0956e-10
-1.17086e-09
-1.26969e-09
4.55843e-10
7.17244e-10
1.08707e-10
1.30345e-09
8.9009e-10
-1.31257e-09
8.28633e-10
2.49375e-09
1.44179e-09
1.59944e-09
1.66899e-09
8.13806e-10
-8.35658e-11
2.41678e-10
9.14774e-10
8.45987e-10
4.90065e-10
9.02824e-10
1.49012e-09
1.0696e-10
-1.06162e-09
7.14771e-10
-2.22614e-10
-1.82094e-10
1.35102e-09
-9.87393e-10
-2.88282e-09
4.57069e-10
-4.70937e-10
2.47657e-10
7.1544e-11
6.36446e-11
8.58387e-10
1.99144e-10
-3.72545e-09
-2.78284e-09
1.5057e-09
7.66494e-10
-1.96124e-09
-1.93086e-09
-6.16482e-10
-4.63243e-10
-5.93049e-10
1.76759e-09
1.25852e-09
-5.36281e-09
-3.92949e-09
3.05904e-09
2.47979e-09
-5.71996e-10
8.81304e-11
6.43908e-10
3.89945e-10
5.06856e-10
5.67382e-10
5.49135e-10
1.13153e-10
-9.87069e-10
-5.82989e-10
2.31506e-10
-7.12299e-10
-4.27405e-10
7.33594e-10
-1.30203e-09
-6.65061e-10
1.93465e-09
-2.08434e-09
4.75064e-10
6.23143e-10
-1.88727e-10
5.19826e-11
4.84866e-10
1.07454e-09
1.12861e-09
-1.67951e-09
-3.63422e-09
1.25321e-10
1.54451e-09
-2.33291e-09
-3.81983e-09
-2.28573e-09
-2.23273e-09
-2.03361e-09
2.62505e-09
1.00441e-10
-1.02609e-08
-8.1796e-09
3.54591e-09
2.949e-09
-2.99551e-09
-1.74293e-09
7.9223e-11
3.77312e-10
4.58215e-10
3.31999e-10
1.36593e-10
2.49712e-10
-4.77781e-10
-2.14578e-09
-2.03408e-09
-1.20162e-09
-8.70207e-10
5.9477e-10
-3.91763e-10
-1.76106e-10
1.29475e-09
5.41848e-10
2.13966e-09
1.12156e-09
-2.81778e-09
-6.70891e-10
2.71718e-10
-1.44856e-09
5.48466e-10
1.30764e-09
-7.19787e-10
9.2479e-10
1.20048e-09
-2.91993e-09
-2.60271e-09
-9.53001e-10
-3.10607e-09
-2.49394e-09
3.61102e-09
-1.46238e-09
-1.63545e-08
-1.07801e-08
4.83171e-09
1.86625e-09
-5.79214e-09
-3.99697e-09
-6.43846e-10
3.35528e-10
5.44607e-10
6.14219e-10
2.80559e-10
1.72727e-10
5.30909e-10
1.6431e-10
-1.36435e-09
-1.86791e-09
-1.24949e-09
-1.98307e-10
8.36781e-10
1.53278e-09
6.14622e-10
1.89356e-09
3.2157e-09
-2.78062e-09
-5.86907e-09
-1.50769e-09
4.76114e-10
-3.67538e-09
-5.50126e-09
-1.81151e-10
2.65117e-09
2.11337e-09
6.42232e-10
-8.72706e-10
-5.85736e-10
-2.54422e-09
-5.78387e-09
-9.49309e-10
3.95889e-09
-2.68676e-09
-1.7787e-08
-1.12083e-08
5.95624e-09
6.93149e-10
-5.47701e-09
-2.94672e-09
5.06344e-11
5.76426e-10
7.18986e-10
5.82419e-10
3.38498e-10
2.25442e-10
1.64518e-10
9.14183e-10
9.30579e-10
-1.49385e-10
-7.83903e-10
-6.98442e-10
6.14137e-10
8.53221e-10
8.19505e-10
6.84935e-10
-1.27369e-09
-6.23963e-09
-5.08922e-09
-1.35982e-09
4.48176e-10
-1.58303e-11
-4.25699e-09
-5.16706e-09
9.15839e-10
2.93177e-09
5.80195e-10
-3.57557e-10
-2.00828e-09
-7.44267e-09
-7.6283e-09
1.41681e-09
2.70643e-09
-4.71699e-09
-1.39039e-08
-1.0287e-08
4.66022e-09
1.35497e-09
-4.33967e-09
-1.80346e-09
4.64367e-10
6.56276e-10
5.96459e-10
1.95134e-10
1.3128e-10
4.05374e-10
-2.39336e-10
-9.9389e-11
1.10391e-09
1.19424e-09
5.32803e-10
-3.78902e-11
-4.41449e-10
-2.592e-09
-1.27826e-09
5.88844e-10
-5.60712e-09
-6.70349e-09
-2.84219e-09
-4.92946e-10
3.33403e-12
1.12606e-09
4.64256e-10
-5.90848e-09
-4.76204e-09
2.11604e-09
1.25179e-09
-1.65709e-09
-4.69078e-09
-8.77482e-09
-4.56067e-09
2.70317e-09
1.42843e-09
-4.90892e-09
-1.12497e-08
-7.93641e-09
3.63777e-09
-8.8633e-10
-5.08159e-09
-9.4321e-10
8.4786e-10
7.77972e-10
5.34005e-10
-2.83467e-10
-7.62329e-10
2.09067e-10
3.65621e-10
-6.40108e-10
-3.53493e-11
8.14948e-10
7.24204e-10
4.18812e-10
-4.05534e-11
-1.3741e-09
-2.0561e-09
2.247e-09
-2.19712e-09
-4.91131e-09
-1.22884e-09
3.28216e-10
-2.65745e-11
9.66079e-11
1.73801e-09
-1.75417e-09
-9.62412e-09
-2.21609e-09
2.39969e-09
-2.28868e-09
-6.21478e-09
-6.02154e-09
-1.39309e-10
2.70245e-09
1.36634e-09
-9.76572e-10
-3.70017e-09
-1.14991e-09
3.16413e-09
-1.63588e-09
-1.41555e-09
1.3625e-09
1.66106e-09
1.18066e-09
4.53254e-10
-3.07403e-10
-1.16093e-09
-5.77037e-10
7.64465e-10
3.87193e-10
2.10883e-10
4.73288e-10
3.45108e-10
2.10105e-10
5.64011e-10
2.91153e-10
6.58829e-10
9.22987e-10
-2.77855e-09
-1.96068e-09
8.73537e-10
7.23642e-10
2.44582e-10
5.21154e-11
6.62586e-10
1.38997e-09
-6.73443e-09
-6.03084e-09
2.97239e-09
-1.69617e-09
-4.32907e-09
-1.23217e-10
2.96688e-09
2.17387e-09
1.11213e-09
1.21207e-09
1.11955e-09
1.4307e-09
1.49087e-09
1.73694e-09
1.78864e-09
1.20244e-09
1.00963e-09
6.36034e-10
2.70633e-10
4.42686e-10
5.52428e-10
-9.62392e-11
5.24757e-10
1.04821e-09
5.11436e-10
7.74534e-10
4.88108e-10
1.72616e-10
2.22086e-10
-2.5895e-10
8.134e-10
2.41892e-10
-1.27518e-09
-7.24258e-10
4.60725e-10
3.98689e-10
2.72305e-12
3.21734e-10
5.86507e-10
5.6339e-10
-4.53131e-09
-5.47645e-09
2.83654e-09
4.2166e-10
-1.04217e-09
1.95598e-09
1.77506e-09
7.35616e-10
7.93743e-10
8.30577e-10
1.2213e-09
1.22807e-09
9.29814e-10
1.22088e-09
6.93734e-10
-1.23707e-09
-1.6047e-09
-4.2371e-10
4.27584e-10
5.09143e-10
5.79547e-10
1.17254e-09
9.93438e-10
1.23941e-09
9.24548e-10
7.73478e-10
8.27206e-10
3.73436e-10
-1.04984e-10
-3.70713e-10
5.10396e-10
1.2415e-09
-3.57888e-10
-1.71904e-09
-6.31383e-10
2.2558e-10
2.16989e-12
2.86853e-10
8.86683e-10
4.4337e-10
-3.44102e-09
-5.19442e-09
1.06823e-09
9.52458e-10
-5.68725e-10
6.83891e-10
-1.50402e-10
-4.98923e-10
6.75886e-10
5.83106e-10
-4.4134e-10
3.8997e-10
1.43312e-09
-1.17709e-10
-3.43205e-09
-3.34731e-09
-3.88074e-10
5.42869e-10
6.50041e-10
1.41897e-09
7.05255e-10
3.84997e-10
1.72772e-09
1.52842e-09
1.15776e-09
2.47573e-10
1.39754e-10
3.38892e-10
1.91346e-11
-3.45907e-10
5.70241e-10
4.18062e-10
-9.12323e-10
-5.57521e-10
6.55298e-10
6.77557e-10
1.37963e-10
4.17735e-10
9.13258e-10
1.15511e-10
-2.24952e-09
-2.46133e-09
6.45001e-10
5.67377e-10
-5.59138e-10
-2.31713e-10
-2.7931e-10
1.05122e-10
6.35291e-10
1.22284e-09
1.77491e-09
1.8736e-09
8.45387e-10
-2.16031e-09
-1.57995e-09
2.6514e-09
2.63273e-09
1.73954e-09
3.83185e-10
-1.64656e-09
1.3109e-09
1.0515e-09
-4.4066e-10
1.22058e-09
1.60718e-09
1.38958e-09
3.48155e-10
-3.18513e-10
-5.30948e-10
4.55439e-11
6.39736e-10
7.12306e-10
4.7087e-10
3.12334e-10
5.98412e-10
1.19574e-09
6.55342e-10
-2.21145e-10
5.83631e-10
7.22884e-10
-6.50297e-10
6.09751e-11
1.54248e-09
1.22076e-10
-9.88204e-10
-5.44759e-11
6.37776e-10
3.86759e-10
1.85406e-10
6.74339e-10
1.36922e-09
8.72711e-10
-6.09279e-10
-7.83657e-11
2.17841e-09
1.93764e-09
1.38945e-09
2.37838e-10
-2.556e-09
-2.39074e-09
1.0035e-09
1.89505e-09
-1.85292e-09
-1.56826e-09
5.63939e-10
9.3562e-10
1.00641e-09
4.18137e-10
-1.67878e-10
-1.29324e-10
-2.43035e-10
7.21236e-10
5.69788e-10
-1.76686e-09
-3.16548e-09
-8.75418e-10
1.64594e-09
-1.16304e-09
-5.49041e-09
-2.37109e-09
1.75507e-09
1.39415e-09
-1.71551e-11
-4.09381e-10
2.39982e-10
8.00028e-10
6.92576e-10
2.83328e-10
3.89825e-11
3.37658e-10
6.41807e-10
2.95951e-10
-1.19143e-11
3.15582e-10
4.09453e-10
1.75784e-10
-2.84314e-10
-9.8119e-10
-9.62317e-10
2.68027e-10
1.52767e-09
1.66725e-09
5.90416e-10
-3.37329e-10
7.4607e-10
9.2531e-10
1.00574e-10
1.80025e-10
4.61241e-10
2.0384e-10
-5.19614e-10
-1.89133e-10
6.44269e-10
1.71176e-10
-1.08517e-09
-9.65122e-10
1.31923e-09
2.03117e-09
-3.59541e-09
-6.49926e-09
-3.30772e-10
1.59903e-09
-4.65512e-10
-5.61718e-10
-9.59272e-11
-5.64677e-11
3.09019e-10
6.84873e-10
4.79971e-10
-1.39579e-10
-3.29399e-10
8.29781e-11
5.25388e-10
8.16893e-10
9.6776e-10
8.40735e-10
1.76881e-10
-8.70494e-10
-1.73569e-09
-5.43278e-10
1.72131e-09
1.30626e-10
-9.19872e-11
2.39855e-09
1.98797e-09
2.39025e-10
-2.15464e-10
3.68795e-10
7.14814e-10
3.46686e-10
-3.90252e-10
-5.65826e-10
2.09266e-10
9.16828e-10
4.34689e-10
-1.98715e-10
1.01097e-09
1.99918e-09
-2.46881e-09
-6.41088e-09
-1.37312e-09
2.3088e-09
-7.02918e-10
-1.63227e-09
-1.95942e-10
3.21144e-10
3.71997e-10
4.00783e-10
1.88758e-10
-1.54714e-10
-3.29031e-10
1.70989e-10
6.04353e-10
-6.32434e-10
-2.768e-09
-3.29218e-09
-2.04735e-09
-8.08131e-10
-2.73991e-10
3.33346e-10
1.35956e-09
-1.98307e-09
-5.79812e-09
-6.01475e-10
1.94007e-09
-8.97978e-10
-1.62729e-09
-1.4707e-10
7.43919e-10
1.98042e-10
2.12627e-10
2.94746e-11
2.12054e-10
6.09042e-10
5.00704e-10
4.66634e-11
2.84759e-10
1.38902e-09
6.37037e-10
-2.61059e-09
-1.66319e-09
9.26393e-10
6.85451e-10
6.1669e-10
6.98043e-10
2.72636e-10
8.57202e-11
8.24682e-11
6.30915e-11
1.52954e-10
3.27736e-10
2.93146e-10
-1.10225e-10
-3.50608e-10
2.39719e-10
8.50385e-10
5.9935e-10
-2.26755e-10
-8.40511e-10
-3.24477e-10
1.04623e-09
1.02941e-09
-1.39707e-09
-1.4701e-09
1.05748e-09
8.47306e-10
-5.51938e-10
-7.13732e-10
-1.99689e-10
3.60903e-10
2.62989e-10
1.22467e-10
-9.29571e-11
1.36523e-10
7.25805e-10
6.66922e-10
1.91883e-11
-2.29604e-10
9.16379e-11
3.76525e-10
3.56924e-10
1.69744e-10
3.14949e-11
3.08079e-10
6.56623e-10
6.45951e-10
2.4035e-10
-1.67022e-10
-3.40221e-10
-3.53823e-10
-3.08197e-10
-1.81541e-10
7.63136e-11
3.5466e-10
3.45556e-10
7.61402e-11
-1.41605e-10
-1.8123e-10
3.64845e-11
3.44239e-10
2.19646e-10
-5.13918e-10
-9.47016e-10
-3.15284e-10
4.695e-10
2.1702e-10
-2.26928e-10
1.02744e-11
3.47924e-10
5.13165e-10
3.46778e-10
6.5324e-11
1.93906e-10
4.51611e-10
4.91163e-10
3.40766e-10
5.43249e-11
-2.2712e-10
-1.89648e-10
7.68703e-11
2.19252e-10
2.02352e-10
1.01114e-10
1.77001e-10
4.56915e-10
4.02452e-10
1.64819e-10
2.79208e-10
3.10165e-10
-1.43355e-10
-2.17831e-10
4.84033e-10
7.61431e-10
2.99684e-10
1.54979e-10
4.73962e-10
1.563e-10
-4.26282e-10
-9.50423e-12
4.5562e-10
2.00187e-10
2.30353e-10
5.03681e-10
5.64543e-10
5.0101e-10
-3.90102e-11
-1.04635e-09
-1.24663e-09
-2.4777e-10
5.33169e-10
5.09447e-10
1.27712e-11
8.42184e-11
1.04679e-10
3.70032e-11
4.01862e-12
1.04953e-11
2.8211e-11
-7.5786e-12
4.77955e-11
1.16068e-10
1.17442e-10
1.14358e-10
3.07103e-10
5.50738e-10
7.50787e-10
9.78463e-10
1.15636e-09
4.28327e-10
1.27499e-10
4.38312e-10
1.18789e-10
1.8355e-10
4.38536e-10
5.15401e-10
2.8269e-10
2.68583e-11
3.94245e-11
3.85982e-10
6.16942e-10
4.27175e-10
1.21127e-10
-9.68183e-13
-9.67556e-13
2.86793e-11
2.71284e-10
2.82043e-10
1.50802e-11
-7.27407e-11
1.55988e-09
1.75796e-09
2.78276e-10
-5.15799e-11
-1.36986e-11
-7.43748e-12
-3.47461e-13
9.45405e-12
7.04147e-11
7.31695e-11
-1.19787e-10
-1.15795e-10
1.21113e-10
4.65637e-10
9.06249e-10
1.33644e-09
1.44573e-09
1.47373e-09
1.77205e-09
1.21133e-09
-1.20244e-10
1.41065e-09
1.19676e-09
7.89409e-11
-3.64394e-10
-3.62853e-10
-1.32705e-10
-1.67813e-11
6.98347e-11
4.82784e-10
9.01763e-10
7.49126e-10
2.59504e-10
2.51368e-12
7.40609e-11
-6.45229e-12
-3.78336e-10
5.63144e-11
4.10636e-11
4.32629e-10
1.54273e-09
1.69183e-09
2.83882e-10
9.86832e-11
2.59973e-10
2.03354e-10
8.81714e-11
-3.17589e-11
-1.01742e-10
9.47466e-12
8.88358e-11
1.45971e-11
1.58579e-10
3.5236e-10
3.40368e-10
-9.33439e-11
-6.72023e-10
-1.28217e-09
-1.86781e-09
-1.23442e-09
4.41089e-10
2.22074e-09
2.22023e-09
9.94991e-11
-3.00113e-10
-3.58169e-10
-2.41378e-10
-7.38448e-11
1.30894e-10
1.2912e-10
-3.44526e-11
-3.18652e-10
-3.46297e-10
6.26443e-11
4.88567e-10
5.82684e-10
5.87886e-11
-1.09663e-10
5.12828e-10
-3.87578e-11
9.28205e-10
1.73497e-09
6.03842e-10
5.95664e-11
3.23688e-10
3.54923e-10
2.08301e-10
9.75906e-11
-4.47632e-11
-1.05974e-11
1.13579e-10
-5.72494e-11
8.57617e-11
5.3378e-10
6.41711e-10
5.53266e-10
3.85293e-10
4.43927e-10
4.25292e-10
2.88157e-10
2.539e-10
2.26876e-09
3.13121e-09
8.38861e-10
7.08889e-11
-5.47745e-11
-2.22197e-11
4.98244e-11
-2.06518e-11
-7.07762e-11
-2.39223e-11
1.84546e-10
1.62369e-10
1.16394e-10
2.87586e-10
4.73361e-10
4.31756e-10
-3.20987e-10
5.34305e-10
-5.5348e-10
-1.97143e-09
2.28632e-09
1.76531e-09
-2.27975e-10
-1.11188e-10
1.48417e-10
1.30446e-10
8.3145e-11
1.24082e-10
8.50745e-11
1.68864e-10
2.89644e-11
-2.51221e-10
9.249e-11
4.43206e-10
6.6917e-10
6.57982e-10
1.02369e-09
1.41678e-09
1.14759e-09
6.24439e-11
2.05316e-10
4.26952e-09
2.62551e-09
3.61587e-10
2.38213e-10
-5.50977e-11
4.62058e-11
-1.09019e-10
-5.15432e-10
-4.61676e-10
-8.03046e-11
1.25039e-10
-2.53052e-11
8.95519e-12
3.81395e-10
5.30689e-10
-5.94776e-11
5.39844e-11
5.31121e-10
-4.8976e-09
-1.1715e-09
1.61641e-09
1.06499e-10
2.1741e-11
3.95011e-10
2.17717e-10
4.27285e-11
2.38002e-10
2.80958e-10
8.81261e-11
1.81655e-10
-1.91298e-10
-5.268e-10
-5.94225e-10
-8.9195e-10
-4.22625e-10
5.50478e-10
9.09651e-10
5.79776e-10
1.08134e-09
-4.13288e-11
3.77894e-09
4.2384e-09
7.22631e-10
6.73503e-10
1.30049e-10
-7.66501e-11
1.85777e-10
-2.91102e-10
-1.08389e-09
-1.05058e-09
-3.48237e-10
3.29959e-10
2.79989e-10
2.4144e-10
6.85551e-10
2.60132e-10
-1.21888e-09
1.78948e-09
-1.67366e-09
-8.07014e-09
-4.70986e-10
5.38822e-10
-2.12867e-10
2.19856e-10
2.37215e-10
-1.10098e-10
1.65858e-11
5.87299e-10
3.02214e-10
2.29673e-10
-7.86347e-11
-1.02319e-09
-1.97772e-09
-1.87075e-09
-5.99341e-10
8.07456e-10
1.77019e-09
8.53901e-10
1.66989e-09
1.38979e-09
7.81826e-11
2.63985e-09
1.38466e-09
1.04493e-09
9.4951e-10
3.20611e-10
4.93595e-10
4.0607e-10
-1.02636e-10
-2.66841e-10
2.33308e-11
8.0427e-10
1.377e-09
6.70021e-10
3.22371e-10
8.65224e-10
-1.12466e-09
-2.1647e-10
2.24407e-09
-9.00048e-09
-3.01692e-09
5.00353e-10
2.6389e-10
2.38905e-10
4.89324e-12
-1.69933e-10
-2.22705e-10
6.17975e-10
1.37684e-09
8.67346e-10
3.92188e-10
-6.48615e-10
-1.32112e-09
-1.00283e-09
-2.87105e-10
7.571e-10
8.34717e-10
-2.02677e-10
2.4279e-09
2.95708e-09
-3.68421e-09
-1.40252e-09
1.68273e-09
1.51318e-09
1.47643e-09
1.06244e-09
9.15822e-10
4.82399e-10
2.49943e-10
2.9394e-10
2.65212e-10
3.02024e-10
1.10635e-09
1.37386e-09
5.27153e-10
6.27112e-10
4.29798e-10
-1.94283e-09
1.45186e-09
-1.98856e-09
-4.6899e-09
-2.27751e-10
7.93332e-10
9.29377e-10
3.7156e-10
1.12056e-10
1.88615e-10
-3.3121e-11
1.21322e-09
1.83864e-09
5.45577e-10
-5.67033e-10
7.06379e-10
1.9709e-09
1.31608e-09
9.46436e-10
-1.03585e-09
-1.8317e-09
3.43802e-09
3.32422e-09
-4.71827e-09
-4.50938e-09
1.41771e-09
2.35907e-09
1.54271e-09
1.00276e-09
3.29102e-10
1.53791e-10
1.13081e-10
2.69809e-10
3.23312e-10
5.78425e-11
-5.03472e-10
-9.55446e-11
3.80632e-10
2.55977e-10
9.65951e-10
-3.04546e-10
3.00431e-10
1.76319e-09
-1.93065e-09
2.32445e-10
1.54301e-09
2.11815e-09
1.18191e-09
1.60378e-10
5.66473e-10
7.79479e-10
-3.26094e-10
-1.95737e-10
-3.78869e-10
4.06534e-10
2.59437e-09
3.1339e-09
3.13183e-09
1.78696e-09
-4.22889e-09