/*--------------------------------*- C++ -*----------------------------------*\
| =========                 |                                                 |
| \\      /  F ield         | OpenFOAM: The Open Source CFD Toolbox           |
|  \\    /   O peration     | Version:  5.0                                   |
|   \\  /    A nd           | Web:      www.OpenFOAM.org                      |
|    \\/     M anipulation  |                                                 |
\*---------------------------------------------------------------------------*/
FoamFile
{
    version     2.0;
    format      ascii;
    class       volScalarField;
    location    "50.4676134421789371";
    object      Vdiffuw;
}
// * * * * * * * * * * * * * * * * * * * * * * * * * * * * * * * * * * * * * //

dimensions      [0 2 -3 0 0 0 0];

internalField   nonuniform List<scalar> 
60000
(
2.28429e-08
1.45397e-08
1.41962e-08
8.97369e-09
6.8267e-09
3.69758e-09
-8.82204e-10
3.66416e-09
2.08627e-08
4.2674e-08
4.60264e-08
2.66387e-08
6.07503e-09
-1.4088e-09
-7.60355e-09
-2.15665e-08
-3.73682e-08
-4.31009e-08
-3.05121e-08
8.60234e-09
5.89099e-08
1.07263e-07
1.33443e-07
1.13655e-07
6.10762e-08
-7.27486e-09
-5.43012e-08
-4.49923e-08
-2.85428e-09
1.75487e-09
-4.87839e-09
-9.41284e-09
-3.06613e-08
-5.48324e-08
-7.11551e-08
-3.61237e-08
1.63446e-09
-1.00243e-09
2.51642e-08
3.41391e-08
9.03444e-09
1.47553e-08
1.81263e-09
-1.11495e-08
-1.61534e-08
2.10754e-09
9.84857e-09
9.51496e-10
-1.89935e-08
-3.11345e-08
-1.89577e-08
1.40782e-09
5.353e-09
1.83414e-09
7.81262e-09
1.7484e-08
2.67772e-08
4.51186e-08
6.67878e-08
6.8069e-08
2.06728e-08
-6.94883e-08
-1.2188e-07
-1.42506e-07
-1.43471e-07
-1.21775e-07
-1.08321e-07
-1.16614e-07
-9.25964e-08
-2.57078e-08
2.08038e-08
7.88306e-08
1.33585e-07
1.40265e-07
8.82161e-08
-5.96784e-10
-3.42168e-09
-1.07581e-08
-4.70031e-08
-2.1275e-08
-2.9743e-08
-1.51357e-08
-3.61473e-09
4.36091e-09
4.83903e-09
-1.99298e-10
1.18978e-08
9.68492e-09
-7.85908e-09
-3.37017e-08
-3.66143e-08
-2.82656e-08
-1.35062e-08
8.95313e-10
1.0827e-08
1.70949e-08
2.11778e-08
2.20192e-08
2.12267e-08
1.26104e-08
-1.11467e-08
-5.32741e-08
-8.43614e-08
-7.63069e-08
-4.7235e-08
-2.08307e-09
4.086e-08
5.79898e-08
4.03787e-08
1.53917e-08
5.14301e-09
-3.77989e-09
2.72577e-09
2.10665e-08
3.66195e-08
4.18969e-08
1.42095e-08
7.18566e-09
-1.86768e-08
-4.11125e-08
-2.8494e-09
3.0801e-09
-2.55181e-09
-9.49274e-10
1.77091e-09
-2.96439e-09
-3.53444e-09
1.05847e-08
1.16821e-08
-3.75958e-09
-4.0234e-09
1.35495e-08
8.03614e-09
-2.79565e-09
-2.50875e-09
-2.75065e-09
-7.71201e-09
-1.18583e-08
-1.24581e-08
2.34473e-09
1.43771e-08
1.22581e-08
1.1725e-08
3.4925e-08
3.72092e-08
2.91517e-08
2.38429e-08
1.73319e-08
8.60162e-09
1.17441e-09
-6.39227e-09
-1.9671e-08
-2.8992e-08
-2.32464e-08
-8.92458e-09
-4.32651e-09
4.07394e-09
1.56049e-08
1.9759e-08
-4.10957e-09
-1.00181e-08
4.90411e-09
9.61946e-09
-3.25458e-09
-5.68765e-09
-7.72897e-09
-1.66206e-08
-6.66708e-09
1.29159e-08
1.17727e-08
-1.94151e-08
-7.30883e-09
1.51916e-08
2.42458e-09
-1.22136e-08
-1.33352e-08
-1.32101e-08
-1.20183e-08
-2.29592e-08
-2.22549e-08
1.94634e-08
2.42696e-08
8.43853e-10
5.18633e-09
4.09705e-09
4.23006e-09
2.8652e-09
-9.61295e-11
-4.22697e-09
-1.26883e-08
-1.58423e-08
-1.65705e-08
-2.19638e-08
-2.60051e-08
-1.71799e-08
-6.06039e-09
-1.50654e-08
-3.46082e-09
1.80974e-08
1.4028e-08
3.66114e-10
-1.73237e-08
-2.8469e-10
6.00608e-09
-1.88712e-10
-2.41992e-09
-8.98165e-09
-1.80975e-08
-3.41675e-09
1.69199e-08
-4.51374e-12
-3.39117e-08
-1.32692e-08
6.18119e-09
-6.69614e-09
-1.50642e-08
-4.57503e-09
3.49856e-09
-2.52076e-09
-3.31256e-08
-7.06514e-09
2.8106e-08
-2.67283e-08
-6.00748e-08
-2.70769e-08
1.19051e-09
3.37756e-10
2.41833e-10
4.44965e-09
6.26092e-09
2.77486e-09
2.12619e-10
-1.64401e-09
-7.79621e-09
-1.57765e-08
-6.17684e-09
3.79454e-09
-8.56426e-09
-3.51163e-09
1.15331e-08
9.46806e-09
-3.11916e-09
-1.27476e-08
-2.48342e-09
3.97248e-09
3.45864e-09
1.33777e-09
-9.54612e-09
-1.64441e-08
2.00297e-09
2.03758e-08
-7.15064e-09
-2.01455e-08
-4.57869e-09
-7.393e-09
-9.82125e-09
1.56313e-08
1.00266e-08
6.24832e-09
-6.67739e-09
-3.35901e-08
2.63411e-08
-1.11759e-08
-5.72646e-08
-5.84627e-09
5.67147e-09
1.02797e-09
1.14047e-10
2.99549e-10
2.70658e-09
5.33096e-09
7.59359e-09
8.0815e-09
4.54735e-09
-4.37634e-09
-1.41627e-08
-4.22432e-09
3.63951e-09
-3.5935e-09
-7.04533e-10
1.45863e-09
7.27581e-09
-1.06121e-09
-5.14777e-09
-1.50609e-09
2.47599e-09
5.35492e-09
3.55605e-09
-1.0657e-08
-1.17438e-08
1.19911e-08
2.13073e-08
-1.01088e-09
-9.47513e-09
-8.06961e-09
2.26201e-08
3.21405e-08
9.65648e-09
1.28746e-09
1.7227e-08
-1.3001e-08
9.58955e-09
2.40737e-08
-6.02493e-09
6.61011e-09
3.52987e-09
2.04071e-09
6.05023e-10
-1.59441e-10
3.64135e-10
1.72093e-09
3.23179e-09
6.76744e-09
9.77912e-09
6.34675e-09
-3.3537e-09
-9.40808e-09
-5.5751e-10
5.03526e-09
-3.79884e-10
-5.79859e-10
2.34116e-09
5.4631e-09
2.18326e-09
-6.75262e-10
-8.10739e-10
2.52782e-10
5.07052e-09
4.16331e-09
-9.48089e-09
2.35911e-09
1.75405e-08
7.98149e-09
-6.92774e-09
5.66587e-09
3.08446e-08
1.68631e-08
-1.49972e-10
-2.28216e-09
7.95172e-09
1.53538e-08
4.13727e-09
3.95926e-08
2.13746e-08
6.21762e-09
2.5892e-09
1.07417e-09
-1.89925e-10
5.9317e-11
4.00091e-10
1.07627e-09
1.64407e-09
1.26089e-09
3.20676e-09
6.36577e-09
3.70932e-09
-3.36072e-09
-4.94656e-09
3.1967e-10
3.69528e-09
-2.84925e-10
-2.89968e-09
2.7436e-09
3.81568e-09
3.37525e-10
-1.76613e-10
1.60316e-09
2.46514e-09
4.31497e-09
-1.04605e-09
-1.78328e-09
1.56822e-08
-2.7814e-09
-1.26784e-09
1.79959e-08
1.22051e-08
-5.11898e-09
-5.0401e-09
-1.31823e-09
-1.92938e-09
8.56067e-09
4.8937e-09
2.02546e-08
2.40246e-08
5.67691e-09
4.8319e-10
-2.16435e-09
-1.23788e-09
2.57985e-10
3.44707e-10
-1.44974e-10
3.87886e-10
1.41691e-09
1.28407e-09
1.60353e-09
3.11372e-09
1.44384e-09
-2.79486e-09
-4.40512e-09
-1.31657e-09
-1.42802e-10
-3.90525e-09
3.34509e-10
2.24904e-09
-1.09989e-09
-1.18205e-09
7.02634e-10
3.77298e-09
4.70409e-09
1.00273e-09
-5.29566e-09
1.03912e-08
1.84495e-09
-1.07368e-08
9.59104e-09
3.08e-09
-2.44991e-09
-1.51798e-09
-8.78027e-10
-9.83119e-10
-2.66071e-09
-2.06238e-09
-5.0486e-09
3.02738e-09
5.7775e-09
-2.73799e-10
-3.84625e-09
-1.33447e-09
3.38951e-10
1.12658e-10
-2.00021e-09
-4.2304e-09
-1.04759e-09
3.22078e-09
3.06216e-09
1.07232e-09
9.85342e-10
4.69556e-10
-1.32033e-09
-2.07603e-09
3.47219e-09
3.14851e-10
-2.72038e-10
1.69487e-11
-3.1432e-10
8.80554e-10
-1.601e-09
-1.55996e-09
1.90087e-09
1.84458e-09
-4.62006e-09
-1.53643e-10
8.80708e-09
-1.07958e-08
-5.47799e-09
5.20187e-09
2.79932e-09
-8.00371e-10
-4.1928e-10
-1.47157e-09
-1.51629e-09
-4.42007e-09
-1.03281e-08
-5.05365e-09
3.13753e-09
-1.49405e-09
-2.10221e-09
-3.36516e-10
1.47299e-10
1.67261e-10
-1.67284e-09
-7.22618e-09
-7.8673e-09
1.22992e-09
6.0809e-09
2.39691e-09
-8.34126e-10
-1.01295e-10
1.15204e-09
1.65277e-09
4.2436e-09
5.01309e-09
-7.36502e-10
-1.39415e-09
2.16569e-09
2.90836e-09
-6.66895e-10
-3.52533e-09
-1.2649e-09
7.20142e-10
-3.47719e-09
-1.85717e-09
1.02543e-08
-2.36832e-09
-9.25769e-09
1.6536e-09
-9.74425e-11
-1.71588e-09
1.01358e-10
-1.45635e-09
-1.32106e-09
-1.41402e-09
-4.12646e-09
-1.13143e-09
-1.02994e-09
1.2615e-10
1.49276e-09
2.34305e-10
-9.86413e-11
4.02736e-10
4.6542e-10
-4.10637e-09
-1.28285e-08
-7.91451e-09
5.04812e-09
5.4853e-09
2.78715e-11
-1.18954e-09
-2.56202e-10
7.29899e-10
6.67443e-10
4.23494e-09
1.40757e-09
-7.36196e-10
9.63665e-10
2.34171e-09
2.65828e-09
8.91929e-11
-1.10624e-09
1.63711e-09
-8.64398e-10
-5.83565e-09
8.73471e-09
6.34533e-09
-1.04629e-08
-4.94102e-09
-1.74049e-09
-4.03215e-09
-2.14292e-09
2.94427e-09
-8.29265e-10
-3.92397e-10
3.95028e-09
1.21958e-09
3.36891e-11
3.37e-09
1.4e-09
-1.16314e-10
5.00092e-10
7.45543e-10
1.71303e-09
2.82827e-09
-4.70724e-09
-1.51843e-08
-4.53657e-09
6.52274e-09
2.54933e-09
-6.92128e-10
-7.16602e-10
-8.49846e-10
2.96657e-10
6.26153e-10
7.04265e-10
-4.0172e-10
-4.85499e-10
1.00046e-09
2.79258e-09
2.74733e-09
1.00858e-11
9.20895e-11
6.08104e-10
-4.75259e-09
-3.46084e-10
6.76511e-09
-3.73863e-09
-2.6416e-09
-2.28616e-09
-6.37157e-09
-2.97934e-09
3.29576e-09
2.62759e-09
-8.94081e-09
-6.81427e-09
1.20907e-10
2.45146e-09
2.19037e-10
-1.17391e-09
1.2769e-10
1.39846e-09
1.31533e-09
1.33772e-09
4.32189e-09
5.42732e-09
-7.58911e-09
-1.46773e-08
1.28953e-09
6.70487e-09
4.60415e-10
-6.1945e-10
2.81597e-10
1.09432e-10
-4.74029e-10
-9.63553e-10
-9.6232e-10
-5.91672e-10
-1.9573e-10
-4.36056e-10
-3.47891e-10
1.2628e-10
-5.80639e-10
-1.50191e-09
-3.7968e-09
-2.93832e-09
3.86298e-09
4.09821e-09
1.85462e-10
-1.5349e-09
7.1488e-10
9.30979e-10
-1.43992e-10
4.63025e-09
4.42297e-09
-5.08711e-09
-2.19452e-09
2.65294e-09
1.58329e-09
5.42896e-10
6.90915e-10
1.00538e-10
-5.93828e-10
-5.13991e-10
1.85094e-09
5.88969e-09
1.47194e-09
-1.32855e-08
-1.08327e-08
3.98672e-09
4.20244e-09
-3.74462e-10
-3.03291e-10
-1.8512e-10
-1.69144e-10
5.80229e-10
9.92113e-10
-1.60666e-10
-1.03544e-09
-5.56929e-10
-4.15641e-10
-2.21577e-10
1.26629e-10
-1.51346e-09
-4.11866e-09
-2.23136e-09
3.37951e-09
2.63195e-09
-1.90283e-09
8.09695e-10
3.10977e-09
1.48789e-09
-6.06952e-11
2.43902e-10
4.58553e-09
5.17704e-09
1.4454e-09
-2.32327e-09
-1.90199e-09
2.42245e-09
1.97708e-09
-2.37673e-09
-4.72828e-09
-3.81125e-09
-8.09815e-10
4.06753e-09
5.81534e-09
-4.07766e-09
-1.33709e-08
-5.68347e-09
2.97611e-09
2.07246e-09
1.28976e-10
6.60925e-11
-3.31954e-10
-2.11771e-10
4.06935e-10
-3.99532e-10
-1.82886e-09
-1.02511e-09
-5.5131e-10
-7.742e-10
3.02842e-11
-7.49127e-10
-3.05167e-09
-7.49336e-10
2.9363e-09
-3.7838e-10
-1.76407e-09
1.95949e-09
1.59375e-09
-2.79706e-10
-1.4435e-10
2.8875e-12
2.21876e-09
5.47201e-09
2.44756e-09
-2.63903e-09
7.53559e-10
4.4688e-09
1.56795e-10
-1.29946e-09
3.98881e-10
-4.78586e-10
-1.83364e-09
-3.60049e-10
5.89324e-09
6.10882e-09
-5.49778e-09
-1.12078e-08
-4.36094e-09
1.76251e-09
1.63751e-09
1.56961e-09
1.97371e-09
2.42374e-09
1.36812e-09
-4.27136e-10
-5.225e-10
1.28693e-09
2.41964e-09
1.14384e-09
-3.64215e-11
3.72977e-12
-8.53752e-10
-1.51922e-09
-1.54132e-09
-1.30269e-09
9.62538e-10
6.38656e-10
-2.31152e-09
-2.64833e-09
-4.52862e-10
1.79649e-10
-1.43142e-10
9.4842e-10
1.27315e-09
1.85688e-09
-3.2475e-10
-2.90266e-09
1.37232e-09
2.48722e-09
-1.01227e-09
5.76281e-10
-7.05966e-10
-6.73297e-09
-4.13777e-09
5.33311e-09
5.19476e-09
-2.58422e-09
-4.87858e-09
-1.20654e-09
1.25146e-09
-1.12895e-09
1.74207e-10
2.56113e-09
1.84909e-09
-4.58168e-10
-3.59757e-10
-6.64417e-11
6.60267e-11
8.61413e-10
3.90743e-10
5.86507e-10
2.23319e-09
8.12129e-10
-1.35162e-09
-5.62233e-11
1.14265e-09
2.13337e-10
-8.35175e-10
-1.20143e-09
-7.90776e-10
3.32066e-10
3.03444e-10
-9.51527e-10
-1.35077e-09
-1.05413e-09
3.1566e-10
1.16873e-09
-1.48919e-09
-3.32918e-09
-5.49541e-10
3.5694e-09
4.87432e-09
-2.08762e-09
-8.48536e-09
-3.19964e-09
3.67838e-09
2.99788e-09
1.40909e-10
-1.22037e-09
-1.31812e-09
2.04463e-10
-7.23077e-10
-1.59663e-09
-1.30735e-09
-2.30195e-10
-5.44144e-11
-9.91926e-10
-2.09596e-09
-2.0193e-09
-5.30202e-10
3.247e-10
1.2774e-09
2.11106e-09
1.14246e-09
-5.64027e-10
-8.01808e-10
2.14148e-10
8.85815e-10
8.00432e-10
2.03557e-10
-4.77519e-10
-3.14886e-10
3.54854e-10
5.55877e-10
4.14931e-10
1.31186e-10
-3.07442e-12
3.00032e-10
4.56438e-10
-2.10366e-10
7.42388e-11
3.35689e-09
6.26096e-09
2.99136e-09
-1.1089e-09
3.41766e-10
1.8416e-09
1.28043e-09
1.0644e-09
8.25408e-10
1.21574e-09
9.32871e-10
2.98841e-10
-3.48398e-10
-4.79416e-10
-2.00326e-10
5.84566e-11
-2.40413e-10
-7.37071e-10
-3.6277e-10
2.55955e-10
-4.96209e-10
-1.68059e-09
-1.35545e-09
-1.70407e-10
1.9427e-10
1.26768e-11
4.11455e-10
9.98055e-10
6.19292e-10
-3.518e-10
-7.57783e-10
-5.96814e-10
-6.59637e-10
-8.1942e-10
-5.74486e-10
-6.22235e-11
2.75142e-10
1.85747e-11
-4.7488e-10
-3.89023e-10
2.84894e-10
6.69726e-10
5.60094e-10
3.95648e-11
-5.01394e-10
2.15196e-10
9.28778e-10
8.80035e-10
1.05454e-09
-2.73825e-10
-3.0472e-10
-3.0224e-10
-2.02439e-11
1.77233e-10
2.43372e-10
3.60659e-10
-5.57434e-11
-5.22101e-10
1.26883e-10
4.50458e-10
-9.40238e-10
-1.83761e-09
-5.3484e-10
8.38962e-10
1.53903e-10
-1.47962e-09
-1.90996e-09
-1.18869e-09
-7.11261e-10
-6.92595e-10
-5.75818e-10
-2.69544e-10
1.26558e-10
5.07474e-10
5.9303e-10
-8.42818e-11
-1.26597e-09
-1.77453e-09
-1.38328e-09
-7.6349e-10
-2.78318e-13
2.74613e-10
-1.5812e-10
-2.61724e-10
-1.08566e-10
-6.6255e-11
-4.54833e-11
-1.47105e-10
-2.78152e-10
-4.26355e-12
-7.01803e-11
-1.50199e-11
-2.20817e-11
-1.74739e-12
3.42639e-10
9.79261e-10
5.83488e-10
-1.37294e-09
-2.15366e-09
-2.01667e-10
1.03384e-09
5.88867e-11
-7.05514e-10
-2.51904e-10
3.80223e-11
-4.30461e-10
-7.9702e-10
-5.52978e-10
-1.00152e-10
3.26e-10
6.83117e-10
7.17552e-10
4.38461e-10
9.54231e-11
-1.32208e-10
-3.0563e-10
-5.1312e-10
-6.53417e-10
-6.20426e-10
-3.77864e-10
1.39859e-11
-2.52766e-10
-8.87845e-10
-5.57985e-10
-2.62891e-10
-2.60578e-10
7.28515e-11
4.31712e-10
3.10237e-10
-1.43319e-10
1.75864e-10
6.87847e-10
4.63297e-10
-4.50658e-10
-1.07406e-10
1.59986e-09
1.94492e-09
3.77055e-10
-8.14445e-10
-1.26736e-09
-1.04245e-09
-1.52911e-10
6.06434e-10
4.80891e-10
-2.72829e-10
-7.36596e-10
-6.2332e-10
-2.90672e-10
-1.6811e-11
7.05386e-11
2.19374e-12
-9.94785e-11
-1.96558e-11
1.19034e-10
1.48468e-10
-2.7455e-11
-2.73411e-10
-2.74495e-10
8.95167e-11
4.1592e-10
2.14236e-10
-2.42169e-10
-1.38571e-10
3.45243e-10
5.34186e-10
2.15665e-10
-2.44875e-10
-3.67435e-10
-2.34398e-10
9.18132e-10
-6.50442e-10
5.46463e-10
2.69308e-09
5.70053e-09
2.79236e-09
-6.45286e-09
-6.36256e-09
-7.88103e-10
4.34915e-09
1.27161e-08
1.36914e-08
5.07246e-09
-6.5767e-09
-1.31572e-08
-6.08525e-09
1.87332e-08
3.63049e-08
-1.93129e-09
-7.8697e-08
-4.5986e-08
8.54201e-09
3.45127e-08
8.51648e-08
1.07011e-07
8.35808e-08
4.70301e-08
2.20559e-08
2.462e-09
-4.51149e-09
6.19679e-09
9.21334e-09
-1.61683e-08
-4.75753e-08
-4.47907e-08
-2.8577e-08
3.72546e-09
2.55154e-09
-2.08633e-09
2.55118e-09
2.835e-09
1.29432e-09
-2.12856e-10
1.72287e-09
6.5844e-09
1.41968e-08
1.64899e-08
-7.15266e-11
-1.15883e-08
-2.16778e-08
-2.91065e-08
-3.11749e-08
-3.53139e-08
-4.09271e-08
-5.03118e-08
-7.02737e-08
-8.71516e-08
-4.37658e-08
9.67007e-08
2.06731e-07
1.46775e-07
7.78788e-08
-6.2341e-08
-1.62965e-07
-2.00615e-07
-2.29596e-07
-2.24025e-07
-1.795e-07
-1.16564e-07
-5.37884e-08
1.94611e-08
9.91945e-08
1.47614e-07
1.231e-07
4.20399e-08
-1.50903e-08
-3.75596e-08
1.88497e-09
-2.49767e-09
-1.11319e-09
-3.5515e-09
-1.52848e-09
-1.57808e-09
-3.37425e-09
-7.22858e-09
-8.37778e-09
1.33574e-09
1.10387e-08
8.05676e-09
3.0097e-10
-1.19791e-08
-1.29979e-08
-6.02519e-09
2.68535e-09
9.18095e-09
1.18776e-08
3.47176e-09
-2.44963e-08
-4.26741e-08
3.1799e-09
5.9888e-08
6.44331e-08
8.96575e-09
-6.07532e-08
-5.19384e-08
-2.33328e-08
1.42169e-08
3.80944e-08
4.11807e-08
3.25311e-08
1.66956e-08
1.22798e-09
-1.95452e-09
1.40905e-08
3.0223e-08
2.95707e-08
1.67081e-08
6.62868e-09
1.26218e-08
-7.5688e-09
-6.70094e-09
7.37749e-10
4.65327e-10
8.80454e-10
1.21298e-09
9.19475e-10
-8.3536e-10
2.56086e-09
5.05157e-09
9.93103e-09
7.39569e-09
4.81589e-09
9.1652e-09
1.1046e-08
1.04908e-08
1.18768e-08
1.6554e-08
1.28125e-08
-7.62324e-09
-4.22969e-08
-6.64566e-08
-1.30759e-08
4.64873e-08
1.16836e-08
3.05601e-08
4.5083e-08
4.14373e-08
3.08356e-08
1.82291e-08
8.83455e-09
7.48184e-10
-6.8266e-09
-1.21498e-08
-1.19916e-08
-6.57362e-09
4.48336e-09
1.57357e-08
9.57674e-09
1.91282e-08
9.23325e-11
-8.20445e-09
-3.12817e-10
1.47088e-09
2.61944e-10
1.23037e-09
2.64359e-09
8.17917e-10
-2.51029e-09
-1.18991e-09
2.21923e-09
9.79945e-09
2.39232e-09
1.03233e-10
-2.57092e-12
-7.138e-10
2.65944e-09
4.84432e-09
1.59563e-09
9.99524e-10
-4.29806e-10
-4.64633e-08
-7.1941e-08
2.76242e-08
2.04449e-08
-8.67453e-09
2.57132e-10
5.96289e-09
1.91692e-09
-8.98764e-09
-1.65763e-08
-1.77348e-08
-1.56581e-08
-1.34024e-08
-1.19731e-08
-1.12707e-08
-2.09534e-08
-1.34622e-08
-1.1948e-09
1.40535e-08
2.09124e-08
6.35326e-09
-9.81311e-09
6.66325e-10
1.92945e-10
-5.76504e-10
5.67895e-10
2.98296e-09
-1.40935e-09
-6.09377e-09
3.38576e-10
1.89511e-09
1.51843e-09
-5.28538e-09
-3.03842e-09
7.97703e-09
1.91031e-08
1.10764e-08
1.64053e-10
-4.21727e-09
4.24612e-09
8.5919e-09
-5.46707e-08
-9.30549e-09
2.5084e-08
-4.50993e-08
-3.77115e-08
-9.62997e-09
-1.55685e-10
4.40292e-09
5.43052e-09
4.41692e-09
4.73969e-09
4.07729e-09
-1.00746e-09
-4.28715e-09
-1.95069e-09
-1.58491e-08
-1.59963e-08
-6.66994e-09
2.7562e-08
3.11861e-08
-6.10396e-09
-4.65757e-09
6.40819e-10
-1.07592e-09
-2.05387e-09
2.26037e-09
6.31698e-09
-9.61339e-09
-1.16646e-08
1.7184e-09
-1.82755e-09
-7.31714e-09
-5.49222e-09
1.19926e-08
1.85818e-08
2.04011e-11
-2.81051e-09
-1.94615e-09
-2.95277e-09
1.443e-08
-2.80738e-08
-2.3735e-08
2.94694e-08
-2.51552e-08
-1.14829e-08
1.717e-09
-7.13411e-10
2.38543e-10
2.67717e-09
5.63938e-09
1.04546e-08
1.68584e-08
1.67018e-08
3.37862e-09
-5.58073e-09
-4.9679e-09
-1.5591e-08
-2.05527e-08
3.80486e-09
2.27375e-08
1.9431e-08
-6.2817e-09
-8.16522e-10
1.94735e-10
-1.94809e-09
-3.18337e-09
5.27908e-09
1.1924e-08
-2.23542e-08
-9.6418e-09
4.40654e-09
-7.2383e-09
-3.77084e-09
9.95652e-09
-4.03942e-10
-8.94632e-09
-3.94656e-09
6.85741e-10
-2.54196e-09
6.5879e-09
-6.58105e-09
-1.64943e-08
2.49293e-08
5.40827e-09
9.08744e-09
4.55146e-09
3.1563e-10
-4.5519e-11
-5.94555e-10
-2.43471e-09
-5.1039e-09
-4.3903e-09
6.75147e-09
1.53012e-08
2.51918e-09
-5.57421e-09
-6.21159e-09
-1.81044e-08
-2.15655e-08
-7.44543e-09
3.03513e-08
5.43238e-09
-1.18558e-09
5.30935e-09
4.54016e-09
-6.60513e-09
-1.26998e-08
1.02026e-08
1.68997e-08
-3.19082e-08
-2.83032e-10
1.52071e-08
5.81627e-09
-3.01053e-11
-9.87136e-09
-9.29393e-09
-2.23039e-09
1.18552e-09
1.19754e-10
3.57964e-10
5.52324e-09
-4.5092e-09
1.85242e-08
1.84718e-08
1.05684e-08
2.36973e-09
1.25926e-09
1.11847e-09
-2.80596e-11
-2.03518e-09
-5.40625e-09
-1.0496e-08
-1.24501e-08
1.48691e-11
1.02509e-08
4.29693e-10
-3.38846e-09
-6.30424e-09
-2.23267e-08
-2.12255e-08
1.16785e-08
1.16244e-08
-1.61863e-09
5.65222e-09
6.50741e-09
4.78033e-09
-3.26711e-09
-1.00931e-08
2.39022e-08
1.25966e-08
-3.3649e-08
1.4928e-08
2.43857e-08
-7.57083e-10
-1.25075e-08
-6.40961e-09
-1.89683e-09
5.73734e-10
1.02933e-09
5.02326e-10
8.16023e-09
3.9295e-09
1.14708e-08
1.77666e-08
4.43597e-09
1.17279e-09
2.02882e-09
5.73839e-10
-2.47351e-10
-7.63367e-10
-3.83969e-09
-8.03581e-09
-9.3119e-09
-6.68881e-09
2.16008e-09
5.61684e-09
9.13595e-10
1.16821e-09
-8.0432e-09
-1.76393e-08
-1.09568e-08
9.7557e-09
-1.01937e-09
-2.09373e-09
1.02411e-09
5.02567e-09
6.32575e-09
-1.19055e-09
-5.04456e-09
2.91249e-08
-2.99042e-09
-2.41814e-08
1.32072e-08
2.31237e-09
-6.73727e-09
-3.30977e-09
1.57579e-10
3.40559e-10
1.1449e-09
3.60465e-09
6.06312e-09
7.55405e-09
3.13172e-09
-2.66298e-09
-3.09889e-09
2.29387e-09
2.35852e-10
-9.7046e-10
-4.95463e-10
7.13533e-12
-2.18751e-09
-7.47715e-09
-6.32996e-09
-7.66916e-10
2.13479e-09
2.79997e-09
2.58645e-09
4.69664e-09
6.25347e-09
-3.4447e-09
-1.93088e-08
5.50943e-09
2.09687e-09
-5.88475e-09
-3.91422e-09
1.66371e-09
2.9932e-09
1.44789e-09
-3.45298e-09
1.66533e-09
1.69518e-08
-1.71909e-08
-8.23792e-09
1.25496e-08
7.28233e-09
2.51555e-09
4.41918e-10
-5.27891e-11
5.41386e-10
2.23698e-09
5.3284e-09
4.84556e-09
-1.15301e-08
-1.35908e-08
1.07488e-09
-1.19008e-10
-1.38472e-09
-1.15027e-09
-5.69038e-10
-5.70988e-11
-2.1492e-09
-9.06092e-09
-1.14723e-08
-1.38091e-09
4.64135e-09
2.25969e-09
5.28229e-10
2.04623e-09
8.97523e-09
5.37478e-09
-7.33475e-09
7.39614e-10
2.83497e-09
-3.06036e-09
-1.49222e-09
7.69035e-10
3.21997e-10
-1.20289e-09
2.23733e-10
2.19996e-09
7.77257e-09
-3.98657e-09
-1.28005e-08
1.19164e-08
1.14433e-08
2.33188e-09
-6.53733e-10
-3.0866e-10
-4.77793e-10
-2.69804e-09
6.68227e-10
1.76661e-10
-4.71077e-09
1.15679e-09
1.05275e-09
-1.02641e-10
-2.75057e-10
2.90793e-10
2.50604e-10
1.94933e-10
2.43463e-09
-1.04955e-09
-1.3184e-08
-9.98933e-09
2.32856e-09
3.42094e-09
8.07707e-11
-7.18206e-10
2.01709e-09
1.08047e-09
3.64756e-09
8.43336e-10
4.12397e-10
5.82153e-10
9.85901e-11
-7.07376e-10
-5.9899e-10
-1.77917e-09
-2.69188e-09
3.84242e-09
9.9429e-09
1.24263e-09
-1.30495e-08
1.62977e-09
6.29866e-09
9.65419e-11
-1.17688e-09
-1.40951e-09
-6.39357e-10
-5.03766e-09
-4.39466e-09
6.93939e-10
3.57393e-09
1.97323e-09
-5.52327e-10
7.57557e-10
3.22574e-09
2.53485e-09
5.26098e-10
1.30062e-10
3.79282e-09
1.00916e-08
1.24209e-09
-1.31661e-08
-5.45556e-09
3.08969e-09
1.65865e-09
-8.95723e-10
-2.7614e-09
-1.63402e-09
2.03935e-09
1.27356e-09
1.1561e-10
4.55788e-10
2.60784e-10
-5.17177e-10
-4.36448e-10
5.37286e-11
-3.07433e-09
-9.16479e-10
1.00882e-08
5.34308e-09
-1.0133e-08
-5.58534e-09
3.60758e-12
-1.38676e-09
-2.99508e-09
-2.33906e-09
8.30259e-10
-3.40611e-09
-8.31004e-09
-2.09266e-09
-3.75335e-10
-2.24348e-09
1.83378e-09
3.10832e-09
-1.79956e-09
-1.77416e-09
2.06209e-09
2.19968e-09
-1.58493e-09
3.13981e-09
1.04097e-08
-3.36722e-09
-9.62291e-09
9.57999e-11
2.83225e-09
5.36966e-10
-1.22623e-09
-1.53627e-09
-1.18901e-09
-7.198e-10
-5.65986e-10
-8.24336e-11
1.39833e-11
7.62948e-11
9.17714e-12
1.27986e-11
-1.07297e-09
-2.27298e-09
4.74241e-09
5.23574e-09
-4.11092e-09
-5.09939e-09
-1.97552e-09
-2.36395e-09
-2.31206e-09
3.55159e-10
1.76459e-09
3.75605e-11
-5.38524e-09
-5.59719e-09
-3.71437e-10
3.89854e-09
5.88029e-10
-5.88174e-09
-3.03692e-09
1.67602e-09
1.20741e-09
-7.68275e-10
-1.54157e-09
-2.15103e-09
5.00578e-09
4.30346e-09
-8.55463e-09
-4.63641e-09
2.5215e-09
1.53817e-09
-7.64758e-10
-9.40405e-10
-4.3734e-10
1.32861e-10
2.35525e-10
-1.90807e-10
-8.9967e-10
-9.75582e-10
1.17735e-10
2.93839e-10
-3.72314e-10
-1.25116e-10
3.86726e-09
6.49838e-09
4.89525e-10
-2.47403e-09
1.25617e-09
2.43742e-09
9.12009e-10
7.30799e-10
2.55223e-10
-6.03468e-10
-1.03238e-09
-7.59945e-10
1.70146e-09
-8.91566e-10
-7.43735e-09
-5.72659e-09
7.55345e-10
1.76706e-09
-2.4353e-09
-5.17284e-09
-2.44838e-09
2.29506e-09
2.60626e-09
4.98898e-09
-3.1172e-09
-8.84707e-09
-1.48018e-09
2.61556e-09
5.36992e-10
1.3417e-09
8.55844e-10
2.51097e-10
-2.02668e-10
-8.76089e-11
-7.61081e-10
-1.53131e-09
-8.57822e-10
2.36699e-10
-2.54549e-10
5.23232e-10
3.78827e-09
4.60971e-09
-7.77867e-10
-2.78497e-10
7.04294e-09
5.08659e-09
-3.64695e-10
-5.8298e-10
5.98882e-10
-7.70566e-10
-4.54868e-10
2.08895e-09
2.3361e-09
-1.75319e-09
-4.92123e-09
-3.45096e-10
4.3526e-09
1.77585e-09
5.76086e-13
-5.04019e-11
-1.87849e-09
-4.79356e-10
3.64122e-09
4.41184e-09
3.3226e-09
-4.34829e-09
-4.99307e-09
4.1903e-10
2.2298e-09
1.00551e-09
4.11997e-10
4.96048e-10
1.09519e-09
4.32528e-10
-3.11778e-10
-7.81653e-11
4.79743e-10
3.45435e-10
-4.49302e-10
-1.25616e-10
1.4181e-09
-5.00102e-11
-1.84643e-09
1.91263e-09
3.09507e-09
-3.00624e-11
-3.07446e-10
2.75846e-10
-3.97439e-10
1.27718e-10
2.00102e-09
3.08361e-09
9.84342e-10
-5.23887e-10
2.9686e-09
2.61793e-09
-1.43669e-09
-3.7986e-10
4.33213e-10
-2.66557e-10
1.19958e-10
-3.22992e-09
-3.14292e-09
2.01166e-09
3.61153e-09
2.44648e-09
-2.46017e-10
-5.09865e-10
7.64234e-10
-1.54424e-09
-1.89344e-09
-1.08424e-09
-1.67834e-10
-9.26226e-11
-1.11882e-10
-3.13058e-10
-6.85614e-10
-1.22783e-09
-1.47595e-09
-4.47926e-10
2.60673e-10
-6.42106e-10
-5.90938e-10
-2.31639e-10
-6.06619e-10
-1.78483e-10
1.72245e-11
-4.74079e-10
-6.85104e-10
-7.15381e-10
-7.22385e-10
-2.85609e-10
2.52656e-10
5.62847e-10
-2.18848e-10
-7.00953e-11
9.68953e-10
-1.45861e-10
-1.28336e-10
1.77504e-09
-7.24854e-11
-5.27818e-09
-8.6317e-09
-3.37028e-09
1.63569e-09
2.14416e-10
-1.04852e-09
-7.57106e-10
-8.49587e-10
5.8613e-11
-3.94055e-10
-1.03575e-09
-9.89847e-10
-2.46165e-10
1.86284e-11
-1.32377e-10
-3.55979e-10
-8.63311e-10
-1.5388e-09
-1.02581e-09
7.21465e-10
1.41759e-09
5.94473e-10
-1.94074e-10
-4.57758e-11
6.50177e-10
9.63211e-10
3.03742e-10
-4.16402e-10
-1.88822e-10
5.84194e-11
-2.94162e-10
-4.65079e-10
-2.55179e-10
2.55074e-10
1.33364e-10
-7.04613e-10
-6.24529e-10
7.41272e-10
2.23315e-09
2.36165e-09
3.7868e-11
-4.38427e-09
-4.893e-09
2.46501e-10
6.62861e-10
-2.40011e-09
-2.25131e-09
-4.38423e-10
1.6139e-09
1.28128e-09
2.36094e-10
-1.80513e-10
-4.1318e-11
-5.8498e-11
-1.12845e-11
4.71321e-10
4.33966e-10
-4.60272e-10
-6.5001e-10
-4.14766e-11
-3.98705e-11
1.45177e-10
1.1109e-09
2.38952e-10
-1.68868e-09
-1.54387e-09
-3.79588e-10
-6.07645e-11
-4.41915e-11
2.29038e-10
1.53272e-10
-3.60057e-10
-7.979e-10
-8.07245e-10
-2.6232e-10
1.91663e-10
2.10995e-10
2.07326e-10
-5.26574e-11
-6.20914e-10
4.23428e-11
1.64892e-09
9.50354e-10
5.74982e-11
5.26381e-10
6.39702e-10
5.13212e-10
8.59562e-10
7.41588e-11
7.14886e-11
1.12761e-11
-6.71753e-11
-3.25008e-10
-1.01911e-09
-1.03314e-09
1.36138e-10
3.19163e-10
-1.9941e-10
1.45569e-10
9.15559e-11
-7.85452e-10
-2.88376e-10
7.9969e-10
-7.60558e-10
-3.04919e-09
-2.53904e-09
-9.16832e-10
-3.08851e-10
-2.23789e-10
-1.14002e-10
1.53441e-10
8.4181e-10
1.8476e-09
1.77607e-09
2.83136e-10
-7.39896e-10
-6.34374e-10
-9.43259e-11
2.69762e-10
-9.91189e-11
-2.24931e-10
5.2387e-10
1.16143e-09
9.07859e-10
2.54785e-10
-8.66601e-11
-6.28195e-11
6.59841e-11
4.06258e-10
-9.55749e-11
-2.53947e-10
-5.87972e-11
8.59922e-11
1.00473e-10
1.47439e-10
4.22077e-10
2.8104e-10
-1.39917e-09
-1.64789e-09
3.98148e-10
1.13258e-09
1.57918e-10
-3.64973e-10
-1.02257e-10
2.62318e-10
6.1973e-10
9.84923e-10
9.51996e-10
4.10261e-10
-1.15984e-10
-3.12693e-10
-3.45139e-10
-4.39019e-10
-2.42104e-10
3.03683e-10
2.17157e-10
-4.03877e-10
-2.69823e-10
3.48732e-10
-2.25001e-10
-1.15865e-09
-2.71344e-10
4.91742e-10
-1.23961e-10
-8.34782e-10
-7.40025e-10
-1.53961e-11
5.57534e-10
-5.53533e-10
3.00519e-10
4.76467e-10
-2.87456e-10
-5.61542e-10
5.15412e-10
1.2609e-09
6.62721e-10
3.70876e-11
-1.25965e-10
-5.23018e-10
-6.26966e-10
-9.05951e-11
2.71345e-10
1.48287e-10
-2.23537e-10
-6.72223e-10
-8.82905e-10
-6.67455e-10
-2.44256e-10
-5.68832e-11
-1.0094e-10
-7.25241e-12
1.30181e-10
-1.81773e-11
-8.63234e-11
4.00179e-12
-2.60576e-10
-6.57879e-10
-3.60779e-10
3.55744e-10
2.60971e-10
-8.10484e-10
-1.31228e-09
-3.14897e-10
6.26646e-10
3.96038e-10
-4.77891e-10
-1.17488e-09
-1.2149e-09
-8.95738e-09
-3.90743e-09
-3.38381e-09
8.19683e-09
2.27596e-08
2.13475e-08
7.69774e-09
-5.54567e-09
-1.25739e-08
-1.1821e-08
-4.18769e-09
8.63638e-09
2.12579e-08
2.82717e-08
2.94794e-08
2.81487e-08
2.72043e-08
2.68386e-08
1.79738e-08
-2.05565e-08
-7.71138e-08
-2.29715e-08
6.61561e-09
2.36982e-08
7.26854e-08
8.53582e-08
6.08612e-08
3.04705e-08
1.30514e-08
7.09671e-09
2.75157e-09
-1.01856e-08
-2.36049e-08
-5.43116e-09
3.88207e-08
3.51286e-08
1.68934e-08
2.06103e-08
2.84324e-09
-7.63858e-09
6.13321e-10
2.09316e-10
3.84159e-09
2.56761e-09
-8.67021e-09
-1.75561e-08
-1.87252e-08
-1.49037e-08
-1.31599e-08
-1.67263e-08
-2.97063e-08
-5.62494e-08
-8.94928e-08
-1.2427e-07
-1.61974e-07
-2.02382e-07
-2.36187e-07
-2.32118e-07
-1.45769e-07
2.25415e-08
1.16998e-07
3.18715e-08
1.73774e-08
-5.80478e-08
-7.66444e-08
-6.24724e-08
-6.2037e-08
-6.22425e-08
-5.93159e-08
-5.59774e-08
-5.16794e-08
-4.28162e-08
-4.03348e-08
-5.62476e-08
-4.5262e-08
1.1844e-08
-5.76286e-09
-7.35692e-09
1.65317e-08
4.02325e-09
2.51629e-09
1.63831e-09
2.23565e-09
-3.8486e-09
-1.20922e-08
-1.31547e-08
-6.60242e-09
2.47244e-09
1.19564e-08
1.74607e-08
1.55145e-08
9.87081e-09
5.62489e-09
7.27119e-09
1.40661e-08
2.20284e-08
2.37054e-08
1.50203e-08
5.87124e-09
8.84286e-09
3.83459e-08
6.51328e-08
5.62532e-08
3.61985e-09
-6.13207e-08
-5.97081e-08
-4.13086e-08
-1.15555e-08
1.3307e-08
2.33757e-08
2.1488e-08
1.73687e-08
2.14746e-08
2.76759e-08
1.33837e-08
-6.49541e-09
7.80958e-09
-7.05448e-10
1.20697e-08
1.11085e-08
2.97597e-09
-1.21685e-09
-1.32018e-09
-6.78705e-10
-1.31914e-10
1.89336e-09
3.51493e-09
2.3732e-09
5.51083e-10
8.52398e-10
3.93984e-09
8.65294e-09
1.28129e-08
1.79066e-08
2.5156e-08
3.18463e-08
3.63081e-08
3.44358e-08
2.19117e-08
3.01542e-09
-2.38822e-08
-4.52965e-08
-5.69504e-12
5.04702e-08
5.95102e-09
1.98535e-08
2.65534e-08
2.03907e-08
1.87352e-08
2.09892e-08
2.19357e-08
1.83363e-08
1.19122e-08
7.46539e-09
9.01225e-09
1.25531e-08
7.68192e-09
-2.74316e-09
-2.10338e-09
1.32031e-08
8.80691e-09
4.69128e-10
-2.81979e-09
-5.50612e-11
1.6507e-09
2.21644e-09
2.56215e-09
1.60005e-09
-3.22757e-09
-7.26222e-09
-5.7031e-09
-1.24207e-09
7.26612e-10
6.18689e-10
3.61701e-10
1.25883e-09
4.31766e-09
6.27137e-09
1.68927e-09
-4.1352e-09
1.31937e-09
-3.37746e-08
-6.97822e-08
2.74416e-08
1.93747e-08
3.67641e-09
1.74169e-08
6.33548e-09
-8.34894e-09
-1.09565e-08
-6.15613e-09
-2.34218e-09
-2.00243e-09
-6.04853e-09
-1.43471e-08
-1.20159e-08
2.09067e-10
-8.28557e-09
-1.98399e-08
2.93601e-09
8.1787e-09
6.62927e-09
-1.10514e-09
-1.09967e-09
-1.82448e-10
-6.37468e-10
2.57282e-10
3.8786e-09
6.95797e-09
2.15447e-09
-3.13803e-09
-2.42515e-09
1.44891e-10
9.24505e-10
-7.70911e-10
-2.62219e-09
-1.40315e-10
5.30667e-09
3.59602e-09
-8.71146e-09
-2.49426e-09
2.24302e-08
-3.60983e-08
-2.15823e-08
2.44772e-08
-2.5884e-08
-1.73526e-08
5.89533e-10
-4.99248e-10
-4.77768e-09
-2.77325e-09
2.92449e-09
7.28129e-09
7.72123e-09
1.08822e-09
-1.00758e-08
-7.31945e-09
-6.67298e-10
-1.43007e-08
-1.42511e-08
-7.71252e-09
9.08888e-09
3.26105e-09
-1.74675e-09
-1.72259e-09
-1.47234e-09
-2.80757e-10
1.9318e-09
1.02763e-08
1.60145e-08
6.08379e-09
-3.7305e-09
-3.82705e-09
-1.72344e-09
-1.73204e-09
-1.14072e-09
1.98694e-09
4.69111e-09
3.75296e-09
-3.85027e-09
-7.68987e-09
8.64178e-09
-1.17687e-08
-3.24402e-08
2.60507e-08
-1.20646e-08
-1.93705e-08
-4.21508e-09
1.45702e-09
2.71314e-09
4.4837e-09
8.34699e-09
1.49762e-08
2.09899e-08
1.63311e-08
1.36792e-09
-8.41795e-09
-4.31123e-09
-6.3755e-09
-1.71801e-08
-1.62559e-08
-1.75331e-09
8.47094e-09
5.54793e-10
-2.07542e-09
-2.05036e-09
-1.62572e-09
-6.74856e-10
-6.95749e-10
9.27111e-09
1.56929e-08
4.4502e-09
-7.05439e-09
-7.91155e-09
-3.97457e-09
9.76448e-11
2.846e-09
3.16208e-09
-1.15157e-09
-2.0113e-09
-3.585e-09
-9.06063e-10
-8.79409e-09
-1.21545e-08
1.42597e-08
9.58427e-10
-2.46041e-09
-1.03171e-09
-2.70403e-10
7.82116e-10
1.88496e-10
-1.96353e-09
-4.47453e-09
1.39067e-09
1.58184e-08
1.4103e-08
-4.10474e-11
-5.33766e-09
-5.7584e-09
-1.19607e-08
-9.45059e-09
-1.5181e-08
4.76803e-09
5.09735e-09
-3.83698e-10
-1.43914e-09
-1.01452e-09
-1.40113e-09
-3.45969e-09
-6.81999e-09
6.74732e-09
1.26866e-08
-3.87225e-09
-1.11643e-08
-4.7411e-09
-1.20833e-09
1.55502e-09
2.70223e-09
-1.85394e-09
-6.33152e-12
-6.05145e-10
-1.35694e-10
-5.6959e-10
2.89373e-09
7.818e-09
5.36083e-09
3.75363e-09
9.22724e-10
1.52559e-11
1.08395e-09
3.51423e-09
1.54087e-09