/*--------------------------------*- C++ -*----------------------------------*\
| =========                 |                                                 |
| \\      /  F ield         | OpenFOAM: The Open Source CFD Toolbox           |
|  \\    /   O peration     | Version:  5.0                                   |
|   \\  /    A nd           | Web:      www.OpenFOAM.org                      |
|    \\/     M anipulation  |                                                 |
\*---------------------------------------------------------------------------*/
FoamFile
{
    version     2.0;
    format      ascii;
    class       volScalarField;
    location    "50.4676134421789371";
    object      Vdiffww;
}
// * * * * * * * * * * * * * * * * * * * * * * * * * * * * * * * * * * * * * //

dimensions      [0 2 -3 0 0 0 0];

internalField   nonuniform List<scalar> 
60000
(
4.46871e-09
-9.02393e-09
-7.55715e-09
1.20364e-09
7.52121e-09
1.22523e-08
2.49764e-09
-5.77904e-09
1.05389e-08
3.46983e-08
3.48988e-08
1.67555e-08
9.23457e-10
6.29526e-11
1.11017e-08
2.53525e-08
2.69393e-08
1.42853e-08
-5.31782e-09
-2.4385e-08
-2.53688e-08
2.25469e-08
7.39809e-08
5.306e-08
1.04386e-08
-1.07921e-08
-1.87495e-08
-2.50808e-08
-1.8784e-08
-2.61273e-09
-1.66247e-09
-2.18424e-09
-2.13869e-09
-1.41961e-08
-2.85744e-08
-1.84978e-08
-2.48933e-09
8.07892e-09
2.37529e-08
2.00371e-08
-1.30805e-08
-1.07931e-09
1.30636e-09
-9.66549e-10
-1.34904e-08
-2.08458e-08
-3.39242e-09
4.30894e-09
-9.56926e-09
-1.93347e-08
-1.51226e-08
-2.77261e-09
3.5746e-09
-8.28452e-10
-1.06326e-08
-2.76985e-08
-3.96848e-08
-4.17974e-08
-4.25043e-08
-2.58577e-08
6.98042e-09
2.23627e-08
3.20976e-08
1.05467e-08
-6.63237e-09
-6.29402e-09
4.10866e-10
1.88199e-09
-3.17005e-09
-1.1247e-09
-6.81871e-09
-3.95369e-08
-5.88775e-08
-6.02331e-08
-5.72304e-08
-3.32856e-08
3.31313e-09
-2.33221e-08
-5.30712e-08
-3.48665e-08
1.16036e-09
5.01307e-09
1.50171e-09
1.91301e-11
1.67897e-09
-6.71168e-09
-5.80871e-09
5.27327e-09
-4.9763e-09
-1.86542e-08
-9.69433e-09
-3.83368e-09
-8.37388e-10
8.2627e-10
1.87256e-09
2.4917e-09
1.16618e-09
1.57573e-09
3.29483e-09
8.32165e-09
9.9128e-09
-1.1816e-08
-2.07637e-08
-1.03446e-08
-4.15416e-09
2.3215e-09
8.26919e-09
1.20409e-08
1.12648e-08
4.41476e-09
4.71284e-09
1.16922e-08
9.33226e-09
9.80972e-09
1.47869e-08
8.47889e-09
-7.38868e-10
8.63382e-09
-5.59615e-10
-9.69607e-09
-3.01953e-09
1.35979e-08
6.78595e-09
-1.24271e-09
3.00485e-10
1.35224e-09
-6.13775e-09
3.35943e-09
5.9067e-09
-1.30452e-08
-1.46681e-09
1.75598e-08
1.24084e-08
1.24408e-09
-8.64578e-10
4.97258e-09
7.25508e-09
3.81999e-09
7.12624e-10
7.47824e-09
1.02751e-08
-1.93484e-08
-3.57422e-08
2.89668e-09
1.60781e-08
7.61582e-09
-2.03864e-10
-2.98746e-09
-8.18394e-10
8.43287e-10
2.89847e-10
1.61734e-09
2.04084e-09
-7.25104e-10
2.63312e-09
1.12216e-08
8.80138e-09
5.29732e-09
3.35295e-09
-8.49592e-09
-2.64394e-08
-1.40145e-08
9.91247e-09
2.63358e-09
-1.32469e-09
-1.96394e-10
-6.58008e-09
-7.49642e-09
9.13538e-09
-3.71418e-09
-3.22361e-08
-8.91403e-09
1.20454e-08
5.7774e-09
-2.46742e-09
1.73183e-09
3.37899e-09
-4.69768e-09
-1.32455e-08
-1.32342e-08
1.05289e-08
-3.44928e-09
-5.21528e-08
-2.48153e-08
4.06263e-09
5.8017e-09
-1.15112e-09
-6.07864e-09
-6.10534e-09
-3.54817e-09
-1.38005e-09
1.21392e-10
1.19185e-09
-1.86137e-09
-1.27429e-08
-1.47298e-08
-2.60399e-10
6.76042e-09
8.29155e-09
-2.42438e-09
1.39141e-09
-2.59801e-08
-1.02689e-08
5.67152e-09
7.51459e-10
2.92019e-10
-6.57903e-10
-1.04694e-08
-1.63275e-09
1.25263e-08
-1.54277e-08
-3.02641e-08
-9.7803e-09
3.41154e-09
2.25681e-09
4.16801e-09
5.31566e-09
5.28279e-10
-3.52195e-10
-1.19285e-08
-2.68915e-10
1.34075e-08
-5.14761e-08
-5.64351e-08
-1.37895e-08
5.14468e-09
3.63286e-10
-1.08367e-09
2.75048e-10
2.41451e-10
-1.90451e-10
3.74381e-10
2.17894e-09
4.48557e-09
3.39008e-09
-9.11945e-09
-1.2828e-08
-1.65951e-09
6.5402e-09
1.25108e-08
1.30157e-08
4.1116e-10
-1.69423e-08
-4.03301e-09
2.16478e-09
1.08424e-09
1.83495e-09
-3.14488e-09
-7.41035e-09
5.59635e-09
7.47908e-09
-2.45142e-08
-2.54285e-08
-4.85899e-09
5.78125e-09
-1.90732e-09
-1.43768e-08
-4.0514e-10
9.10245e-09
7.08203e-09
-4.5661e-09
1.84464e-08
-3.07775e-08
-5.85822e-08
-7.33009e-09
6.54073e-09
7.81124e-10
2.5594e-10
8.31905e-10
1.18251e-09
1.05255e-09
9.19418e-10
1.40866e-09
2.27555e-09
3.99171e-09
2.75877e-09
-7.21968e-09
-8.70226e-09
-1.73023e-09
6.79567e-09
7.95984e-09
9.11857e-09
-1.0699e-09
-4.49728e-09
-5.39216e-10
7.11652e-10
1.89907e-09
2.06233e-09
-4.8334e-09
-9.64156e-10
8.28236e-09
-2.30803e-09
-1.49793e-08
-1.09025e-09
6.28192e-09
-2.25228e-08
-2.55958e-08
-5.60069e-10
6.73107e-09
8.18615e-09
3.10206e-09
1.19411e-08
-9.57646e-09
-2.99803e-08
4.75306e-09
5.57739e-09
1.6323e-09
9.42245e-10
5.03398e-10
3.09505e-10
5.76738e-10
1.22596e-09
1.99856e-09
2.24434e-09
2.07731e-09
3.05381e-09
1.72598e-09
-3.89411e-09
-5.22074e-09
-1.36029e-09
-3.15174e-10
6.70916e-09
1.97949e-09
-2.45373e-11
7.55834e-10
2.27317e-11
7.52104e-10
3.07267e-09
1.6995e-09
-1.10432e-09
2.85325e-09
7.54283e-09
6.55838e-09
1.00534e-08
-1.56587e-09
-1.7989e-08
-6.21982e-09
3.28786e-09
2.97933e-09
-6.79189e-10
3.08179e-09
4.09797e-09
4.82041e-09
-5.76563e-10
1.01449e-08
4.4985e-09
2.00655e-09
9.02972e-10
3.74569e-10
1.66112e-10
4.94783e-10
1.60418e-09
2.61386e-09
2.8854e-09
2.11857e-09
1.33305e-09
1.75147e-09
1.48581e-09
-1.77947e-09
-4.83663e-09
-5.27577e-09
1.70363e-09
1.76997e-09
-4.05789e-10
1.83732e-09
7.81224e-10
1.63566e-10
2.26305e-09
3.66285e-09
2.3542e-09
1.28119e-09
1.63428e-09
1.00165e-08
4.33534e-09
-7.83744e-09
-8.3809e-10
7.50308e-09
3.7792e-09
1.39349e-09
-9.36793e-10
-1.37286e-09
-5.29302e-11
1.15038e-08
1.71113e-08
7.50568e-09
2.33697e-09
8.73154e-10
5.38359e-10
2.24308e-10
1.84154e-10
4.97671e-10
1.47477e-09
2.95136e-09
3.73217e-09
2.98626e-09
1.26118e-09
1.80838e-10
5.25824e-10
8.48025e-10
-2.72673e-09
-5.08774e-09
-1.92886e-09
1.27399e-09
-3.46634e-09
-2.90777e-09
6.93807e-10
-8.4393e-10
-2.9048e-09
-1.00367e-09
2.09486e-09
2.65963e-09
-1.45832e-09
3.53882e-09
7.61325e-10
-6.29349e-09
1.1867e-09
2.59938e-09
1.90882e-09
1.17038e-09
1.79234e-09
1.41931e-09
1.22469e-09
8.04837e-09
1.26971e-08
5.72021e-09
7.64682e-10
-8.25561e-10
1.78043e-10
1.73145e-10
3.01925e-10
-1.31972e-11
-1.33359e-09
4.03584e-10
3.80466e-09
4.26707e-09
1.87315e-09
-2.25476e-10
-6.76157e-10
1.95179e-10
-7.0042e-10
-3.61212e-09
-2.25732e-09
1.24198e-09
-4.6167e-09
-6.28718e-09
-1.17405e-09
6.64801e-10
-3.72821e-09
-5.3538e-09
-2.47754e-10
3.46418e-09
-2.99005e-11
3.22421e-10
5.4687e-09
1.39877e-09
-2.58781e-09
-4.5096e-10
3.28073e-09
2.02456e-09
3.90822e-09
8.58861e-09
5.75842e-09
2.61908e-09
4.46269e-09
5.76561e-09
3.15479e-10
-1.32649e-09
2.66777e-10
2.38403e-10
4.55139e-10
1.16348e-10
-3.57425e-09
-5.11516e-09
1.13349e-09
5.75851e-09
3.21131e-09
1.03314e-10
-7.04661e-10
-6.46727e-10
-9.83185e-10
-2.41793e-09
-1.81637e-09
1.82234e-09
-8.91042e-10
-2.25131e-09
-6.92413e-10
1.14783e-09
7.98711e-10
-2.96243e-09
-1.42109e-09
4.41808e-09
-1.44827e-09
-4.01885e-09
5.68863e-09
4.23715e-09
-2.36363e-09
2.29985e-09
2.85685e-09
2.05711e-09
2.62761e-09
6.33543e-09
7.24242e-09
9.6167e-10
1.96059e-09
3.06845e-09
-2.27123e-10
2.0655e-10
5.6799e-10
-4.47707e-10
-1.39181e-11
1.2177e-09
-1.55714e-09
-8.64838e-09
-6.66852e-09
4.47363e-09
6.55932e-09
1.08255e-09
-7.26891e-10
-3.45812e-11
-2.52133e-10
-7.86646e-10
-2.64605e-09
3.24209e-10
2.60871e-09
1.27256e-09
-3.67069e-10
-3.06745e-10
1.98002e-09
9.67953e-10
-3.66623e-09
1.63139e-09
4.25428e-09
-7.41301e-09
1.93004e-09
6.44013e-09
2.40798e-09
3.21229e-09
-4.98133e-09
-1.60161e-10
-4.68051e-10
-1.05169e-08
-9.64136e-10
3.31644e-09
1.15274e-09
9.20841e-10
1.84117e-09
1.88648e-09
2.98109e-10
-1.02395e-09
-6.44049e-10
1.57952e-09
3.42384e-09
-2.49765e-09
-1.24616e-08
-6.02188e-09
7.03641e-09
4.98831e-09
-7.53527e-10
-5.09621e-10
6.87734e-10
1.69988e-09
-9.92493e-10
-2.57454e-09
-5.05625e-10
6.94339e-10
7.35412e-12
-1.87943e-09
-1.69173e-09
1.37336e-09
-2.91681e-10
-2.27946e-09
4.46402e-09
6.29815e-10
-5.3422e-10
6.81667e-09
5.53767e-09
-2.23489e-09
-4.71902e-09
-3.51333e-10
1.00206e-09
-1.35903e-08
-1.69523e-08
-1.84975e-09
1.71398e-09
1.05707e-09
8.82779e-10
4.97899e-10
5.8026e-10
8.62185e-11
-1.0299e-09
-7.46615e-10
3.36433e-09
5.8887e-09
-4.80709e-09
-1.4562e-08
-3.55566e-09
6.84089e-09
2.17161e-09
-1.55151e-09
4.62236e-10
1.45163e-09
2.20144e-09
9.72591e-10
1.20362e-10
-1.22032e-10
5.00081e-10
1.0567e-09
-7.36368e-11
-2.49388e-10
8.93862e-10
-1.36503e-09
4.35591e-10
2.29848e-09
-7.94841e-10
1.24907e-09
4.16044e-10
-1.46451e-10
2.00143e-09
8.66593e-10
1.58787e-09
1.18967e-09
-7.88477e-09
-5.52707e-09
1.18416e-09
-3.71194e-10
-2.40908e-09
-7.45535e-10
7.01567e-10
-1.19579e-11
-1.8809e-09
-3.20363e-09
-1.05769e-09
5.14845e-09
3.93553e-09
-9.04055e-09
-1.21472e-08
-6.78748e-10
4.41807e-09
-2.95302e-10
-1.46086e-09
-7.41827e-10
1.82803e-09
1.12074e-09
2.09347e-10
9.47568e-11
-1.31048e-10
4.81475e-10
1.26083e-09
4.29612e-10
3.88175e-10
3.65868e-11
-1.06598e-10
1.50084e-09
-6.17265e-10
-1.06705e-09
9.50006e-10
1.16098e-09
1.28755e-09
1.09083e-09
8.14497e-10
4.59156e-10
-1.63897e-09
-7.26801e-10
1.51482e-09
-5.87397e-10
-2.01827e-09
-3.18662e-10
5.76364e-10
1.06491e-10
-6.36177e-10
-1.50608e-09
-1.67688e-09
2.03542e-09
6.37738e-09
-8.2546e-10
-9.79216e-09
-6.19054e-09
1.87353e-09
2.04422e-09
-1.90254e-09
-2.04234e-10
9.47524e-10
9.80473e-10
1.90733e-10
1.08261e-10
3.96127e-11
4.3095e-10
1.70267e-09
1.29372e-09
1.21638e-10
3.679e-10
4.92328e-10
1.25279e-09
6.18962e-10
1.34241e-09
2.02266e-09
1.50372e-09
1.66643e-09
3.01308e-10
6.77871e-10
1.12709e-09
-1.84968e-09
-1.48347e-09
1.20367e-09
1.2948e-10
-8.22392e-10
4.66124e-10
5.93498e-10
3.6262e-10
5.72858e-10
6.9014e-10
6.19471e-10
7.67161e-10
4.94085e-09
5.72883e-09
-3.26422e-09
-6.11089e-09
-1.04284e-09
2.10511e-09
7.48672e-10
1.72845e-09
1.49968e-09
7.49361e-10
3.39674e-10
4.04162e-10
1.67568e-10
-7.91528e-10
-3.69852e-10
1.21067e-09
5.81183e-10
1.88791e-10
1.00576e-09
4.60892e-10
2.57294e-10
7.51734e-10
1.53589e-09
1.63257e-09
-8.93619e-10
-2.2552e-09
-7.02115e-10
1.49778e-09
1.91789e-09
5.06983e-10
-3.67623e-11
5.86869e-10
9.8193e-10
8.73582e-10
1.72969e-09
7.57522e-10
-1.46808e-10
2.70728e-09
2.60655e-09
-7.05844e-10
6.9809e-10
5.44861e-09
3.34852e-09
-2.10523e-09
-1.33742e-09
9.63467e-10
1.45074e-09
-2.66544e-10
-1.4915e-09
-1.91836e-09
-6.11877e-10
4.83808e-10
-3.09697e-10
-1.86452e-09
-3.17462e-09
-1.92053e-09
8.51072e-10
-2.3463e-10
-4.71608e-10
1.29971e-09
9.169e-10
3.9917e-10
7.22969e-10
3.4617e-10
8.44656e-11
4.99763e-10
4.35424e-10
6.83461e-11
5.87609e-10
8.03329e-10
1.91511e-11
-6.28532e-11
4.70775e-10
2.65385e-10
-1.07741e-09
-1.14319e-09
7.08595e-10
-8.13564e-10
-7.03163e-09
-9.29748e-09
-5.14098e-09
1.32952e-09
3.58252e-09
1.11215e-09
-5.16447e-10
-5.07223e-11
2.64501e-10
4.68865e-10
-1.78844e-10
-5.80663e-10
-1.24813e-10
2.19191e-10
2.44958e-10
3.67544e-10
-7.62715e-11
-1.14873e-09
-2.74143e-10
6.51253e-10
-1.5251e-09
-1.68731e-09
4.66306e-10
1.21232e-09
5.81337e-10
2.45238e-10
4.28862e-10
5.88559e-10
7.28848e-10
7.2011e-10
3.3295e-10
1.28025e-10
2.28008e-10
1.71136e-10
1.06427e-10
1.42137e-10
9.90836e-11
2.8682e-10
5.34881e-10
7.09427e-10
1.27335e-10
-2.45346e-09
-4.66238e-09
-1.8091e-09
2.07441e-09
1.66096e-10
-2.49881e-09
-1.30273e-09
4.47129e-10
2.2891e-10
4.25859e-10
3.93877e-10
2.30799e-10
1.46918e-10
2.66591e-10
4.46089e-10
4.10075e-10
1.01938e-10
-5.97506e-11
3.71323e-10
1.47042e-10
-1.05466e-09
-1.56002e-09
-9.00509e-10
2.67397e-10
1.03513e-09
6.53545e-10
-2.78882e-10
-4.90196e-10
1.07246e-10
6.47527e-10
7.49105e-10
5.91986e-10
3.90399e-10
2.03981e-10
1.69731e-10
5.5264e-10
9.65747e-10
8.96052e-10
7.96603e-10
1.37214e-09
2.13985e-09
1.42007e-09
-3.29336e-10
6.29088e-12
1.16922e-09
4.24805e-10
-6.92238e-10
-4.39533e-10
5.12334e-10
3.26918e-10
1.62967e-10
1.07687e-10
-2.01701e-11
-2.369e-10
7.514e-11
3.84208e-10
3.36302e-11
6.9056e-11
3.81842e-10
3.66062e-11
-5.76164e-10
-4.51806e-10
2.13005e-10
4.89989e-10
1.60242e-10
-3.79495e-10
-5.41883e-10
-2.89314e-10
1.13124e-10
4.45063e-10
2.1552e-10
-1.71926e-10
-3.29334e-10
6.26641e-11
4.66897e-10
-2.70698e-10
-1.51738e-09
-1.20995e-09
1.37798e-10
5.7706e-10
3.02971e-11
5.79776e-10
1.20654e-09
6.61057e-10
6.87866e-11
1.97408e-10
6.22254e-10
7.08847e-10
1.01985e-10
6.13223e-11
2.9557e-10
4.01015e-10
1.27435e-10
-3.63199e-10
-3.5799e-10
3.7545e-10
8.68748e-11
-6.85688e-10
3.44747e-10
8.03692e-10
-9.73721e-10
-1.60568e-09
-6.91146e-11
6.87892e-10
1.60862e-10
-7.82323e-11
1.37091e-12
-1.52224e-10
-2.71895e-10
-1.44762e-10
5.28343e-11
2.24026e-10
4.85585e-10
5.31249e-10
2.89865e-12
-7.78924e-10
-1.20513e-09
-8.30988e-10
2.81998e-10
8.63952e-10
-4.78221e-10
-1.42153e-09
5.70753e-11
7.76795e-10
2.18525e-10
1.14488e-10
3.94336e-10
3.62049e-10
5.81202e-10
6.17796e-10
-1.32132e-10
-4.40663e-10
2.94994e-10
2.55981e-10
-1.02181e-09
-9.21595e-10
3.52501e-10
-4.03198e-11
-8.6175e-10
4.54233e-11
9.74823e-10
4.84669e-10
-3.73835e-10
-3.40827e-10
5.54856e-10
1.12237e-09
9.0477e-10
3.81274e-10
1.34072e-10
2.75153e-10
6.53163e-10
7.55142e-10
5.11899e-10
3.27902e-10
3.43859e-10
3.87403e-10
2.31543e-10
-2.28196e-10
-4.4892e-10
3.80455e-10
1.01297e-09
-2.74122e-10
-1.26012e-09
-3.96184e-10
3.07842e-10
1.26451e-11
-3.91483e-10
-8.58766e-11
6.59377e-09
1.44637e-09
4.38275e-10
-1.42774e-09
-2.154e-09
-2.23938e-09
-9.75304e-11
1.157e-09
-1.32918e-09
5.1509e-09
1.2118e-08
9.4483e-09
2.09602e-09
-3.75295e-09
-5.91491e-09
-5.60084e-09
-7.46673e-10
4.65604e-09
-1.22688e-08
-9.70792e-09
3.539e-08
1.0063e-08
1.00093e-08
5.54404e-08
3.41809e-08
-2.62707e-08
-5.94838e-08
-5.19486e-08
-2.30341e-08
-2.83756e-09
-3.06718e-09
-1.18202e-08
-1.16014e-08
-2.34266e-09
-7.33965e-10
-4.25035e-09
-3.38935e-09
-3.45196e-09
-9.81882e-10
6.81569e-09
1.23196e-10
-1.04397e-10
2.59393e-10
7.54291e-10
1.65506e-09
7.94191e-10
-2.55937e-09
1.75365e-09
-8.78305e-10
-1.43258e-08
-1.33448e-08
-9.89842e-09
-9.75966e-09
-7.3281e-09
-3.3906e-09
-4.39143e-09
-1.08388e-08
-5.72421e-11
-3.83358e-09
-1.01767e-07
-9.61354e-08
8.19618e-09
-8.73983e-09
-2.47095e-08
-4.62328e-08
-6.47284e-08
-5.60526e-08
-3.68995e-08
-1.77526e-08
-2.23021e-09
2.73514e-10
-8.95384e-09
-1.978e-08
-1.83613e-08
-5.4716e-09
-2.05631e-09
-3.36221e-09
1.48395e-09
1.62396e-09
1.38162e-09
-1.32084e-09
2.09349e-10
-4.56361e-10
-4.93031e-10
-3.7364e-10
1.33295e-09
1.47863e-09
-1.68366e-10
5.6823e-09
1.94234e-09
-5.80135e-09
-3.56092e-09
-1.05878e-09
2.93656e-09
9.25479e-09
1.32093e-08
7.70838e-09
-2.93732e-09
1.1781e-08
1.56341e-08
-2.32603e-08
8.64601e-09
4.56524e-09
7.55869e-10
2.16499e-08
1.7873e-08
1.90089e-08
2.23863e-08
1.79123e-08
9.96911e-09
7.27417e-09
9.15739e-09
1.0723e-08
8.40935e-09
6.52544e-09
5.39797e-09
2.11236e-09
1.23529e-09
-6.93074e-10
-5.54693e-09
5.01609e-10
3.64124e-09
8.13414e-10
2.65374e-10
1.852e-10
8.05851e-10
1.08897e-09
-2.58391e-09
3.3783e-09
7.24355e-09
-1.47413e-09
2.04305e-09
4.27724e-09
1.83531e-09
3.68409e-09
6.92418e-09
7.2047e-09
2.69476e-09
7.25262e-09
1.69705e-08
-3.19321e-08
3.09388e-09
1.56646e-08
-2.50975e-08
1.38816e-08
2.45602e-08
1.29382e-08
3.93912e-09
-2.7251e-10
-2.68018e-09
-4.5172e-09
-5.24071e-09
-4.94598e-09
-3.955e-09
1.32703e-09
7.72959e-09
4.85649e-09
1.75304e-09
3.27239e-09
-2.75254e-09
-4.79478e-09
3.5834e-09
1.79251e-09
6.25939e-11
4.00773e-10
6.33288e-10
1.81018e-09
-2.26773e-09
-7.9573e-09
9.80046e-09
3.02434e-09
-8.2901e-09
-1.38969e-09
4.93593e-10
-1.99116e-10
-4.08574e-10
1.75902e-09
2.20691e-09
-4.36335e-09
1.99808e-08
-8.49215e-09
-4.58522e-08
2.56404e-08
-3.14479e-08
-3.56005e-08
-1.70327e-09
5.18648e-09
-1.06574e-09
-6.6133e-09
-7.46196e-09
-6.83978e-09
-6.56987e-09
-6.78186e-09
-9.32906e-09
-1.33114e-08
-4.8786e-09
4.2528e-09
3.07786e-09
4.32374e-09
4.6899e-10
-8.25811e-09
-2.48655e-10
3.00195e-09
9.90115e-11
5.06029e-10
8.07206e-11
9.86876e-10
4.4162e-09
-7.54733e-09
-6.10874e-09
1.58185e-08
2.60857e-09
-1.88023e-09
1.69527e-09
-5.05985e-09
-1.22772e-08
-5.10848e-09
3.84374e-09
-5.4819e-09
-5.28727e-09
2.40602e-08
-3.50679e-08
1.2839e-08
-1.18589e-08
-7.53987e-08
-3.67175e-08
-2.88391e-09
1.5129e-09
-1.81291e-10
-1.39014e-09
-1.91184e-09
-1.32441e-09
2.95679e-10
7.72274e-10
-4.67446e-09
-1.11308e-08
-2.54348e-09
2.5763e-09
3.6425e-09
6.84932e-09
8.70162e-10
-9.17085e-09
2.98069e-09
6.5967e-10
6.13817e-10
5.8847e-10
-1.43346e-10
3.5796e-09
8.78727e-09
-1.45517e-08
8.77389e-10
1.93268e-08
8.80681e-09
4.3311e-09
-6.22551e-09
-1.05604e-08
1.92795e-09
3.8027e-09
-1.47801e-09
-9.69637e-09
1.17796e-08
-2.35031e-09
6.1719e-09
-8.13903e-10
-6.85664e-08
-2.59086e-08
1.88681e-09
1.45661e-09
1.8947e-09
3.32108e-09
4.07644e-09
5.73438e-09
9.1554e-09
1.10692e-08
6.91232e-09
-4.52859e-09
-8.83095e-09
-1.66183e-09
1.50276e-09
8.04696e-09
9.94294e-09
-7.18176e-09
-2.80387e-09
1.0744e-09
6.25563e-10
1.35049e-09
-4.34664e-10
-1.68542e-09
8.13458e-09
1.24806e-08
-1.71766e-08
5.35532e-09
1.82344e-08
5.59502e-09
-3.79879e-09
4.65778e-09
7.76594e-09
9.75546e-10
-5.65533e-10
-2.5863e-09
1.73099e-09
1.09781e-08
9.06303e-09
1.02423e-09
-3.08922e-08
-5.26964e-10
5.92188e-09
6.17784e-10
1.35653e-10
9.05736e-10
1.28386e-09
1.53403e-09
3.02792e-09
8.08277e-09
1.23122e-08
6.46669e-09
-5.71221e-09
-6.59347e-09
-2.93235e-09
3.07308e-09
7.98697e-09
4.34302e-09
-1.3325e-09
1.21591e-09
-8.43586e-10
8.26534e-10
1.08218e-09
-4.89869e-09
-1.06623e-08
1.01405e-08
1.13265e-08
-2.08566e-08
-4.08287e-09
3.57235e-09
3.91483e-09
7.78233e-09
3.81162e-09
-8.14056e-10
1.30342e-09
1.0078e-09
-1.55564e-09
1.03505e-08
8.66672e-09
3.00059e-09
6.15744e-10
1.22393e-08
4.2717e-09
-1.32056e-09
-5.52176e-10
4.20157e-10
4.07067e-10
-4.7946e-10
-2.62857e-09
-4.5371e-09
9.293e-10
7.67594e-09
2.41116e-09
-6.05969e-09
-7.53816e-09
-4.30095e-09
4.39142e-10
6.99312e-09
1.9964e-09
1.59739e-09
4.32737e-10
7.40699e-10
1.68873e-09
3.52693e-09
-5.3407e-09
-1.82528e-08
1.28611e-08
7.40325e-09
-2.59869e-08
-8.43903e-09
8.77363e-09
8.97027e-09
2.40894e-09
1.42983e-09
2.06822e-09
1.15742e-09
-3.60578e-09
2.54857e-09
3.39093e-09
4.55793e-09
1.85553e-08
1.22698e-08
-9.27641e-10
-1.3037e-09
1.59289e-11
4.78072e-10
3.19686e-10
-3.234e-10
-2.48443e-09
-5.16925e-09
-5.4738e-09
5.20459e-10
4.45044e-09
-1.1875e-10
-6.89047e-09
-1.06919e-08
-8.26395e-09
3.3509e-09
1.88764e-09
1.3258e-09
1.53931e-09
1.04816e-09
7.08043e-10
1.79878e-09
6.01591e-09
-5.48844e-09
-1.63621e-08
1.71579e-08
3.9612e-09
-1.21079e-08
8.26749e-09
9.88185e-09
3.01791e-09
1.3882e-09
1.32731e-09
1.40132e-10
-2.85975e-09
-3.94828e-09
-1.54695e-09
6.13615e-09
1.38973e-08
5.88713e-10
2.60358e-10
8.81975e-10
6.62027e-10
3.03994e-10
2.51638e-10
2.89402e-10
-1.47612e-09
-1.88226e-09
-1.09351e-09
1.81485e-10
2.09643e-09
2.46596e-09
-3.35406e-10
-9.00048e-09
-1.01859e-08
-1.28302e-09
2.21797e-09
8.64252e-10
4.19108e-10
2.69269e-10
8.05951e-10
9.1394e-10
2.96792e-09
4.02287e-09
-1.12508e-08
-6.97143e-09
1.66675e-08
-4.60693e-09
-1.52315e-08
-7.23486e-09
-1.33413e-09
1.51327e-09
4.6034e-10
1.69424e-10
1.46289e-09
-2.22729e-09
-7.14476e-10
1.51245e-09
-3.54503e-09
8.42378e-10
1.46356e-09
5.23511e-10
6.92908e-10
2.85793e-10
3.15819e-10
-1.2005e-09
-5.01438e-09
-4.5768e-09
1.82866e-09
3.79925e-09
1.88233e-09
1.41237e-09
2.3721e-09
-2.49077e-09
-5.86781e-09
-3.02556e-09
2.09436e-09
1.46228e-09
4.45745e-10
1.68457e-10
2.72839e-10
3.25394e-10
1.86935e-09
3.008e-09
-6.56524e-09
-1.22639e-08
7.94057e-09
1.0637e-09
-2.59502e-08
-1.5403e-08
-2.59928e-10
1.37548e-09
-1.23166e-09
1.56396e-09
5.92553e-09
4.86073e-09
1.34217e-09
-1.04211e-09
7.65868e-10
2.42009e-09
7.36178e-10
3.3043e-10
-6.85568e-10
-5.12805e-10
7.7557e-10
3.36173e-10
-5.59479e-09
-1.16929e-08
-3.48443e-09
5.63626e-09
3.50804e-09
7.27459e-10
1.60327e-09
7.59828e-10
-2.46191e-09
-1.61118e-09
1.64587e-09
1.09735e-09
7.27267e-10
4.37939e-10
1.38278e-10
-4.86845e-10
-3.5973e-11
3.20707e-09
-1.72675e-09
-1.19513e-08
2.02131e-09
4.91698e-09
-1.75073e-08
-9.66412e-09
2.94659e-09
-2.18389e-09
-3.0187e-09
2.9058e-09
4.64588e-09
6.32615e-09
2.53087e-09
9.42566e-10
2.13412e-09
1.59794e-09
1.25799e-09
7.1798e-10
3.6225e-10
3.86713e-10
1.84807e-09
5.66814e-09
5.34827e-09
-6.16488e-09
-1.11982e-08
9.05965e-10
5.577e-09
1.42488e-09
6.19574e-10
7.02118e-10
-9.96773e-10
-2.43388e-09
-6.71385e-10
3.1647e-10
2.99703e-10
3.82662e-10
6.93085e-10
6.259e-10
-1.86815e-10
1.33417e-09
3.08735e-09
-5.35568e-09
-1.32196e-09
5.76627e-09
-4.41474e-09
8.29822e-10
2.51211e-09
-4.86778e-09
-1.40649e-09
2.59127e-09
5.32858e-11
1.05259e-09
1.74382e-09
1.94799e-10
1.06457e-09
3.61363e-09
2.84511e-09
5.05151e-10
8.85372e-10
1.0246e-09
-6.98371e-10
5.38891e-10
8.38178e-09
5.61204e-09
-1.08471e-08
-8.79815e-09
3.30938e-09
3.16371e-09
4.20022e-10
4.87623e-10
6.4984e-11
-8.3571e-10
-8.80498e-10
-1.25673e-10
4.40778e-11
5.04279e-10
1.10073e-09
1.1081e-09
4.59324e-10
5.23461e-10
2.3025e-09
3.96234e-10
-9.05649e-10
5.07095e-09
6.13119e-09
4.93871e-09
1.41905e-09
3.75829e-10
1.7437e-09
1.39986e-09
-7.49163e-10
-1.05365e-09
5.463e-11
5.75128e-10
2.13046e-09
-1.07353e-10
-2.92144e-09
-6.75762e-10
1.06132e-09
-2.04571e-10
-3.63246e-09
-6.82282e-09
-6.85777e-10
9.26417e-09
-2.49654e-09
-1.40151e-08
-3.25381e-09
3.77959e-09
1.05198e-09
-9.1131e-11
3.25076e-10
1.14548e-09
9.32762e-10
2.9129e-10
2.52318e-11
-1.11671e-09
-1.96864e-09
-7.91129e-10
3.79259e-10
4.26563e-10
1.11375e-09
3.36648e-10
-1.30227e-09
3.00896e-09
5.09786e-09
1.16062e-09
3.07738e-10
1.03508e-09
1.45119e-09
1.51759e-09
2.63247e-10
-2.35858e-10
6.2127e-10
1.40062e-09
-4.363e-10
-2.908e-09
-1.82301e-09
1.06461e-10
6.96474e-10
5.7425e-10
4.23787e-10
-2.07348e-09
-4.48434e-09
4.8737e-09
6.74187e-09
-1.05609e-08
-1.06095e-08
1.15781e-09
2.58278e-09
4.14916e-11
1.00313e-09
9.75938e-10
5.85119e-10
2.38765e-10
1.946e-10
-4.19115e-11
-1.15282e-09
-1.85464e-09
-3.86286e-10
5.24889e-10
4.13e-10
2.00356e-10
-6.08223e-10
1.74133e-09
1.38145e-09
-3.09955e-09
-1.35117e-09
8.16938e-10
3.04729e-10
1.30319e-09
6.64509e-10
-2.5194e-09
-2.12601e-09
2.12965e-10
4.24108e-10
-1.35238e-09
-2.17004e-09
-5.70983e-10
3.2514e-10
4.2747e-10
1.53636e-09
2.91704e-09
-9.66901e-10
-2.0274e-09
7.96128e-09
2.56666e-09
-8.20813e-09
-3.69283e-09
1.91712e-09
1.68333e-09
1.4157e-09
6.71029e-10
-2.04518e-10
-2.70283e-10
1.47071e-10
3.07441e-10
-2.80238e-11
-1.18483e-09
-1.34571e-09
2.30924e-10
3.25683e-10
1.21627e-10
6.25146e-10
-2.51534e-11
-2.21043e-09
-1.75125e-09
6.92578e-10
-1.15679e-10
-2.59902e-09
-1.91813e-09
1.04748e-09
8.2329e-10
-3.83033e-10
4.61546e-10
1.46436e-10
4.9831e-10
1.69129e-09
1.01597e-09
3.58815e-10
1.28998e-10
1.07871e-09
4.09254e-09
4.13353e-09
-1.45512e-09
1.20388e-09
6.31582e-09
6.96434e-10
-1.25702e-09
9.60235e-10
1.71895e-09
-5.24643e-10
-2.16267e-09
-2.65694e-09
-1.09263e-09
2.49121e-10
1.27454e-10
-3.69114e-10
-1.24896e-09
-2.22632e-09
-7.38765e-10
6.33548e-10
-3.99613e-11
8.15917e-10
1.23381e-09
5.488e-10
4.74878e-10
5.80798e-10
1.69267e-10
-7.91479e-10
-1.57457e-09
-8.41367e-10
7.31139e-10
7.03447e-10
-6.44153e-11
1.35136e-10
7.61248e-10
8.88103e-10
5.64068e-10
2.07987e-10
3.55792e-10
-4.41826e-11
-2.06085e-10
6.37075e-10
-7.42085e-11
-8.78505e-10
2.60898e-09
2.94091e-09
7.80447e-10
7.3559e-10
6.74669e-10
-9.32891e-10
-8.12486e-10
-3.71174e-10
3.26328e-10
3.60453e-10
-2.82983e-11
1.37905e-10
3.27773e-10
-7.82276e-10
-1.62795e-09
2.23383e-10
2.86741e-10
-1.3736e-09
-6.01217e-10
7.52156e-10
5.55288e-10
4.45468e-10
1.21628e-09
1.3948e-09
5.05909e-10
-2.73191e-10
-7.13004e-11
9.50213e-11
-1.34151e-10
2.18213e-10
2.56126e-10
-5.38902e-10
-5.51444e-10
2.44554e-10
1.66631e-10
-8.85896e-10
-1.50213e-09
-1.72925e-09
-2.75768e-09
-2.57541e-09
7.10777e-10
1.86569e-09
-1.11545e-09
-2.53274e-09
-1.64597e-09
-1.15156e-09
-2.80321e-10
4.4845e-10
4.99601e-10
2.55719e-10
3.84519e-10
4.90652e-10
7.15381e-10
9.80515e-10
2.38451e-10
-6.7008e-11
8.79792e-10
-7.18624e-10
-3.0221e-09
-1.54469e-09
9.03141e-10
-7.87058e-11
-1.85841e-09
-9.53113e-10
4.52879e-10
3.47341e-10
4.57598e-11
2.02148e-10
3.64412e-10
5.86144e-10
6.50144e-10
4.36438e-10
5.94166e-10
9.96771e-10
1.07318e-09
8.16726e-10
1.03552e-09
2.04986e-09
2.11812e-09
-3.70035e-10
-1.42584e-09
8.49167e-10
1.05827e-09
-1.12104e-09
-1.87733e-09
1.63351e-09
9.9593e-10
2.55471e-10
1.76942e-11
1.97245e-10
-7.31229e-11
-5.06206e-10
-1.28651e-10
3.09475e-10
3.5811e-10
2.9336e-10
1.68506e-10
-1.88686e-10
-4.16386e-10
3.30196e-10
6.92375e-10
-1.1838e-09
-2.88882e-09
-1.836e-09
-9.77901e-11
4.1111e-10
3.79838e-10
4.86988e-10
2.23349e-10
-4.70735e-10
-3.40571e-10
5.95961e-10
-1.92786e-11
-1.14666e-09
-1.72729e-10
9.71986e-10
1.50729e-10
2.34324e-10
1.59096e-09
2.06935e-09
1.34693e-09
3.98772e-10
4.12426e-10
1.10341e-09
1.66112e-09
2.81882e-10
-6.80068e-12
9.96577e-11
2.15198e-10
-4.55319e-11
-4.99552e-10
-6.86315e-10
-1.65942e-10
2.68873e-10
-1.13332e-10
1.01886e-10
6.2707e-10
7.2211e-12
-8.042e-10
-3.03492e-10
6.25251e-10
5.15669e-10
-3.57804e-10
-8.86418e-10
-6.09591e-10
-2.28189e-11
3.90421e-10
6.78258e-10
8.15878e-10
7.40451e-10
6.36479e-10
4.40258e-10
1.37844e-10
1.34955e-11
2.63607e-10
1.02114e-09
5.9391e-10
-1.19076e-09
-4.82151e-10
1.25034e-09
1.07299e-09
3.2651e-11
-3.16094e-10
1.33216e-10
5.08313e-10
2.52456e-10
5.19572e-10
-1.22218e-10
-1.51141e-10
3.73513e-10
8.34534e-14
-8.21006e-10
-5.77047e-10
2.12433e-10
2.50099e-10
-1.22476e-10
1.76046e-10
5.97535e-10
3.67133e-10
-1.68585e-11
4.49123e-11
5.4084e-10
9.47028e-10
8.14267e-10
3.54374e-10
2.48669e-10
6.50601e-10
7.03125e-10
-1.05503e-10
-6.17771e-10
-1.58793e-10
4.26893e-10
3.77266e-10
-1.50684e-10
-6.09751e-10
-1.1765e-10
9.97171e-10
3.49501e-10
-1.40117e-09
-1.2822e-09
-7.05988e-11
4.77532e-10
9.32075e-11
-6.22836e-10
-6.26876e-10
-3.17498e-10
4.59443e-09
-1.25852e-09
-5.7841e-09
1.70308e-09
5.55868e-09
5.34288e-10
-4.93862e-09
-5.76113e-09
-4.19723e-09
-2.7694e-09
2.09458e-09
7.29219e-09
8.38188e-09
4.29868e-09
-5.11293e-09
-1.78902e-08
-2.46073e-08
-1.46838e-08
6.93091e-10
8.40171e-09
2.48698e-08
-3.42588e-10
3.34238e-08
7.06863e-08
5.16963e-08
1.91277e-08
3.73186e-09
4.4881e-10
1.06013e-10
5.96174e-11
-5.11607e-10
-4.80572e-09
-2.03226e-08
-3.81428e-08
-2.53179e-08
-4.05295e-09
9.28868e-09
6.55412e-09
6.84669e-11
3.7243e-09
1.1345e-09
-6.74235e-10
1.71617e-09
2.13322e-09
-1.54034e-09
-3.36642e-09
-5.78728e-10
3.0805e-09
4.05551e-09
-2.38619e-09
-1.48166e-08
-2.65012e-08
-3.68166e-08
-4.80328e-08
-6.10178e-08
-6.80977e-08
-5.20369e-08
-1.54163e-08
1.78929e-09
-4.22496e-08
-3.03157e-08
1.87149e-08
-4.29747e-08
-5.62278e-08
-5.34595e-08
-4.14903e-08
-2.24935e-08
-8.66601e-09
-2.21854e-09
1.57926e-10
1.32895e-09
2.92878e-09
3.77296e-09
-6.06472e-09
-9.1954e-09
1.11944e-09
-7.18023e-09
3.43687e-09
4.33438e-09
1.06953e-09
-3.09259e-10
8.1584e-10
3.58666e-10
-1.58923e-09
-1.85897e-09
-3.32914e-10
1.30156e-09
9.60338e-10
1.06479e-09
4.38404e-09
5.58544e-09
4.82676e-09
6.11924e-09
1.00347e-08
1.4298e-08
1.51382e-08
1.10569e-08
6.65678e-09
2.17709e-09
2.43551e-09
-9.64905e-09
1.64662e-08
-2.78338e-09
-1.56616e-08
-4.25038e-09
-4.51208e-09
1.22127e-09
8.62794e-09
1.18993e-08
1.12364e-08
8.74628e-09
6.72367e-09
7.71529e-09
1.22181e-08
6.60055e-09
7.20377e-10
-3.27819e-09
-4.60539e-09
1.47398e-09
3.64258e-09
2.23644e-09
1.55864e-09
1.03064e-10
-9.07757e-10
5.24605e-10
9.04646e-10
5.20162e-10
3.01446e-10
-1.17012e-10
1.31434e-09
2.48874e-09
3.00304e-09
4.42345e-09
6.74362e-09
9.22174e-09
1.07682e-08
9.29229e-09
8.18047e-09
7.56992e-09
-5.63117e-09
-2.4729e-08
4.02355e-09
1.46741e-08
-8.52799e-09
2.06704e-08
1.92672e-08
6.41659e-09
4.34313e-10
-9.96691e-10
-8.07194e-10
-6.42014e-10
-1.02379e-09
-3.80306e-10
3.21889e-09
4.34952e-09
9.8197e-10
6.74436e-11
-3.17257e-09
1.84714e-09
4.12843e-09
4.185e-09
2.60437e-09
6.25929e-10
-1.96119e-09
-9.55139e-11
1.40879e-09
-1.12086e-10
7.41787e-10
1.7845e-09
2.72299e-09
3.1952e-09
1.42384e-09
7.74657e-10
1.09507e-09
1.19364e-09
6.34388e-10
-2.26157e-10
-2.94242e-09
4.19311e-09
1.41327e-08
-1.70272e-08
-2.96166e-08
2.27915e-08
-1.93714e-08
-1.44074e-08
7.99854e-09
3.51166e-09
-4.51739e-09
-7.17117e-09
-7.22579e-09
-6.76625e-09
-6.32768e-09
-6.54241e-09
-4.70507e-09
1.1583e-09
1.86592e-09
7.02971e-10
-3.53245e-09
-1.3774e-09
1.1987e-09
5.09027e-09
3.14589e-09
1.833e-09
-2.28137e-09
-2.0793e-09
1.45647e-09
-2.95835e-11
-3.39902e-09
-1.75346e-09
6.40947e-10
2.66949e-09
2.38517e-09
1.23806e-09
1.61488e-09
1.65038e-09
5.45373e-12
1.61425e-10
3.59872e-10
-3.32964e-09
7.95047e-09
1.52492e-08
-2.8295e-08
7.80978e-09
2.96789e-09
-4.25468e-08
-1.66646e-08
1.50506e-09
-1.28253e-09
-6.70222e-09
-8.50733e-09
-7.02306e-09
-3.78622e-09
-1.84329e-09
-4.1425e-09
-3.7169e-09
9.29138e-10
2.02178e-09
-4.06384e-10
-2.96199e-09
-1.48637e-09
2.91515e-09
4.09686e-09
3.14086e-09
-1.42395e-09
-3.93555e-09
2.75787e-10
2.34028e-09
-3.96562e-09
-7.86076e-09
-3.70103e-09
1.38345e-09
2.35029e-09
1.2124e-09
1.73101e-09
1.74664e-09
-9.79372e-10
-3.27362e-09
-2.71981e-09
-1.34197e-09
5.35381e-10
1.2287e-08
-7.03682e-09
-4.99135e-10
1.11391e-08
-4.01339e-08
-2.38459e-08
-1.47885e-09
1.4437e-09
2.13003e-10
2.32442e-10
1.93803e-09
6.51763e-09
1.20341e-08
9.43271e-09
-1.09373e-09
-2.7455e-09
1.01465e-09
1.44176e-09
-1.12277e-09
-1.01479e-09
-3.84507e-10
3.04894e-09
3.24729e-09
1.05492e-09
-3.08885e-09
-1.46227e-09
2.93925e-09
4.19431e-09
-4.265e-09
-7.33652e-09
-1.0106e-09
4.58201e-09
4.15321e-09
2.81659e-09
1.81726e-09
5.50056e-10
-2.96198e-09
-5.46877e-09
-1.90237e-09
2.82771e-10
6.43929e-09
5.19605e-09
5.67227e-09
7.97295e-09
-1.51155e-08
-5.87335e-09
1.17989e-09
1.53875e-09
2.94067e-09
3.59465e-09
3.53238e-09
3.90173e-09
8.65129e-09
1.81196e-08
1.34376e-08
-6.26164e-10
-2.15216e-09
8.87959e-10
6.79108e-10
6.72921e-10
-9.38976e-10
-9.58615e-10
9.43096e-10
2.20349e-09
-7.53046e-10
-4.29491e-09
-2.81198e-09
3.54235e-09
7.1215e-09
-4.43795e-09
-4.12914e-09
1.04215e-08
1.34217e-08
5.18846e-09
8.77814e-10
1.29215e-09
-1.11762e-09
-1.89777e-09
4.63796e-10
2.69887e-10
3.18658e-09
7.46297e-09
6.66702e-09
6.02378e-09
6.55766e-09
7.13771e-09
3.17744e-09
1.35312e-09
-3.60194e-10
-8.14074e-10
1.18685e-09
-2.06483e-09
-1.23236e-08
-1.14782e-08
5.88973e-09
7.29404e-09
-2.15316e-09
-2.18513e-09
1.10941e-09
2.01921e-09
7.68693e-10
-3.92379e-10
1.65098e-09
4.24741e-10
-4.21437e-09
-4.61279e-09
-1.06254e-09
7.04298e-10