/*--------------------------------*- C++ -*----------------------------------*\
| =========                 |                                                 |
| \\      /  F ield         | OpenFOAM: The Open Source CFD Toolbox           |
|  \\    /   O peration     | Version:  5.0                                   |
|   \\  /    A nd           | Web:      www.OpenFOAM.org                      |
|    \\/     M anipulation  |                                                 |
\*---------------------------------------------------------------------------*/
FoamFile
{
    version     2.0;
    format      ascii;
    class       volScalarField;
    location    "50.4676134421789371";
    object      Vdifftke;
}
// * * * * * * * * * * * * * * * * * * * * * * * * * * * * * * * * * * * * * //

dimensions      [0 2 -3 0 0 0 0];

internalField   nonuniform List<scalar> 
60000
(
1.1196e-08
-9.09543e-09
-1.24824e-08
-2.37113e-09
6.67219e-09
6.87745e-09
1.79767e-09
-6.94285e-10
1.45514e-08
4.17033e-08
4.82287e-08
2.70029e-08
6.373e-09
2.52616e-09
9.19835e-09
2.37611e-08
3.26212e-08
3.45995e-08
2.76063e-08
1.13915e-09
-3.95021e-08
-3.52969e-08
3.64806e-08
1.11901e-07
1.80945e-07
2.56617e-07
3.13385e-07
2.99954e-07
1.82173e-07
6.4793e-08
2.25761e-08
2.22876e-08
5.77105e-08
8.77554e-08
4.54347e-08
-8.30753e-09
4.31518e-09
2.14813e-09
2.67133e-08
3.22926e-08
1.10304e-08
7.27741e-09
-1.13791e-08
-2.13827e-08
-1.5231e-08
-7.59567e-09
-2.1869e-09
-2.16049e-09
-2.03773e-08
-3.28571e-08
-1.93281e-08
3.16309e-09
6.62303e-09
4.14132e-10
-5.85634e-09
-1.42571e-08
-1.93721e-08
-3.53686e-08
-6.18836e-08
-7.75778e-08
-9.44393e-08
-1.51808e-07
-2.14743e-07
-3.19378e-07
-4.90971e-07
-6.82423e-07
-7.60592e-07
-6.06199e-07
-3.01587e-07
-9.60443e-08
-5.47564e-08
-1.04792e-07
-1.79369e-07
-1.80851e-07
-7.86604e-08
-8.4116e-09
-1.55489e-09
-1.12077e-08
-4.5243e-08
-1.67541e-08
-2.93792e-08
-6.34265e-09
7.3824e-09
1.10248e-08
5.52623e-09
2.6074e-09
5.60805e-09
5.38107e-09
-6.56276e-09
-3.00794e-08
-3.53255e-08
-2.82354e-08
-1.19224e-08
1.07328e-09
1.21235e-09
-8.75797e-09
-1.53325e-08
-1.40572e-08
2.77273e-09
2.63071e-08
3.96616e-08
2.02454e-08
-7.08966e-09
-1.23464e-08
-7.71033e-09
3.51039e-09
7.62744e-09
-1.07309e-08
-3.13553e-08
-1.53341e-08
2.01829e-08
4.10989e-08
2.7176e-08
-1.80114e-08
-4.71474e-08
-1.78087e-08
1.722e-08
2.73323e-08
-8.79804e-09
-4.29594e-08
1.56744e-09
9.54209e-09
5.31731e-09
3.40235e-09
5.07528e-09
4.96121e-09
6.58739e-09
1.4136e-08
1.50134e-08
2.45897e-09
4.69864e-09
2.02861e-08
1.47121e-08
6.50928e-09
8.96261e-09
1.10071e-08
1.23322e-08
1.48013e-08
2.15604e-08
4.60636e-08
5.19192e-08
3.25045e-08
2.48873e-08
6.67395e-08
1.0283e-07
1.27942e-07
1.43681e-07
1.31641e-07
9.06139e-08
4.06945e-08
1.8361e-08
3.42249e-08
6.08345e-08
6.69383e-08
4.62574e-08
2.41248e-08
1.07786e-08
1.95051e-08
3.31877e-08
4.83753e-09
-1.31917e-08
-3.92431e-09
5.27009e-09
-3.56307e-09
-7.68331e-09
-1.07285e-08
-1.28749e-08
-2.90216e-09
1.42457e-08
1.17725e-08
-1.47962e-08
-5.13259e-09
1.20064e-08
-1.84017e-09
-5.49775e-09
9.19726e-09
1.53895e-08
8.50623e-09
-1.18864e-08
-1.03652e-08
3.23682e-08
2.33946e-08
-1.37076e-08
1.29315e-09
1.58713e-08
2.29241e-08
2.3895e-08
1.54014e-08
8.58729e-09
1.46884e-09
-2.56465e-08
-4.0075e-08
-2.23762e-08
4.84011e-09
1.18555e-08
-1.85776e-09
-1.43758e-08
-2.11318e-08
4.59382e-09
1.36311e-08
3.36063e-09
-1.94412e-08
-3.53137e-09
5.64787e-09
-2.91024e-10
-6.01051e-09
-1.3304e-08
-1.87968e-08
-3.38006e-09
2.01091e-08
8.67234e-09
-2.12702e-08
-8.22911e-09
7.87606e-09
6.28861e-09
1.50378e-08
1.07231e-08
4.17892e-09
1.00036e-09
-3.26088e-08
3.38747e-09
3.76381e-08
-2.23028e-08
-5.22484e-08
-2.19964e-08
6.5747e-09
7.2641e-09
1.67431e-09
-5.24658e-09
2.24206e-09
2.36491e-08
1.54508e-08
-1.07391e-08
-1.98187e-08
-3.42639e-09
8.57763e-09
9.12151e-09
7.1415e-09
1.55488e-10
1.29379e-08
1.38664e-08
1.83347e-10
-1.24488e-08
5.04369e-11
7.47852e-09
7.72053e-09
1.49996e-09
-1.12749e-08
-2.02712e-08
-2.93745e-09
2.62602e-08
7.77801e-09
-1.38329e-08
4.84636e-10
1.67646e-08
1.52074e-08
-1.14284e-08
-6.13775e-09
1.03707e-08
-1.98548e-08
-5.32525e-08
2.87015e-08
4.55553e-09
-4.39447e-08
-3.19249e-09
8.59713e-09
4.28362e-09
2.16928e-09
-4.9023e-10
-6.74587e-09
-3.06695e-09
2.12041e-08
2.74377e-08
-9.65541e-10
-2.61624e-08
-1.42388e-08
5.15655e-09
1.16748e-08
8.98608e-09
6.14431e-09
8.96301e-09
1.13819e-08
2.60283e-09
-1.13323e-09
1.97988e-09
7.75153e-09
1.3728e-08
9.83671e-09
-7.25832e-09
-2.48825e-08
-6.38141e-09
2.42126e-08
3.75412e-09
5.56026e-10
1.2701e-08
-1.60865e-08
-3.003e-08
-1.03588e-08
4.83857e-09
7.01833e-09
-6.30014e-08
-2.09044e-08
2.98352e-08
1.85017e-11
6.35403e-09
2.944e-09
7.61748e-10
8.18685e-11
3.95649e-10
1.55844e-10
-4.87778e-09
-8.7629e-09
7.6399e-09
2.3971e-08
2.84636e-09
-2.4696e-08
-1.43919e-08
4.7038e-09
9.06621e-09
6.90029e-09
6.66166e-09
8.89392e-09
4.4679e-09
1.81572e-09
3.35222e-09
1.42573e-09
1.04556e-09
7.08509e-09
1.24504e-08
-2.2463e-09
-3.93911e-08
-1.05121e-08
1.9522e-08
7.6955e-09
-6.07956e-09
-3.00275e-08
-1.92217e-08
-1.66261e-09
6.52303e-10
1.1415e-08
-1.34642e-08
-5.35008e-08
1.61701e-08
2.20565e-08
6.20527e-09
-3.54135e-10
-7.50451e-10
-1.35477e-09
-1.04798e-09
-1.9139e-10
3.07298e-10
-2.6481e-09
-8.21515e-09
-1.2766e-10
1.52268e-08
4.20561e-09
-1.47528e-08
-8.7617e-09
2.27697e-09
4.39534e-09
3.42239e-09
6.99797e-09
5.60067e-11
-1.1006e-09
4.99259e-09
5.00039e-09
6.28252e-10
-3.16338e-09
6.9136e-10
1.50297e-08
-7.38037e-09
-5.13825e-08
5.99868e-09
1.2806e-08
-1.91188e-08
-1.8669e-08
5.2815e-11
4.68586e-09
2.35329e-09
2.0659e-09
1.67416e-08
-2.27276e-08
-1.33506e-08
1.39193e-08
2.18618e-09
-1.92543e-09
-2.43615e-09
-2.36881e-09
-1.78328e-09
-1.32991e-09
-7.61479e-10
5.70851e-10
8.81758e-10
-1.71836e-09
6.53807e-10
8.48921e-09
4.66193e-09
-6.01996e-09
-5.59383e-09
-6.5047e-10
1.52084e-09
7.48839e-09
3.18134e-09
-8.55837e-10
3.2813e-09
7.64172e-09
5.20557e-09
1.93071e-10
-2.53971e-09
3.09334e-09
1.71634e-08
-2.22037e-08
-2.91336e-08
1.61839e-08
-3.93939e-09
-7.30775e-09
-1.68069e-09
2.54171e-09
3.22734e-09
4.55201e-10
6.45882e-09
1.1451e-08
-1.37929e-08
-1.05396e-08
-2.7672e-09
-7.00553e-10
-1.57462e-09
-1.23982e-09
-9.55173e-10
-9.55889e-10
-2.44837e-09
-3.80848e-09
2.08931e-10
4.49897e-09
3.68045e-09
2.04456e-09
3.23176e-09
2.17205e-09
-9.00067e-10
-8.39357e-10
1.23677e-09
9.17958e-09
7.81054e-09
-1.14869e-09
1.48683e-09
6.96458e-09
5.2905e-09
6.13447e-10
-1.60054e-09
-3.97007e-10
8.56103e-09
8.49817e-09
-2.25083e-08
1.09772e-09
1.0823e-08
-5.39534e-09
-5.48265e-09
2.42808e-09
3.70962e-09
3.09077e-09
3.56982e-09
1.04792e-08
4.51257e-09
-6.23944e-09
-7.86525e-10
6.78561e-10
1.40636e-09
1.07754e-09
5.40469e-10
3.68503e-10
-1.86004e-09
-7.66015e-09
-7.6383e-09
2.13479e-09
6.78944e-09
2.47283e-09
-7.20343e-10
6.26232e-10
1.38464e-09
5.53251e-10
-4.14275e-10
4.63565e-09
6.93734e-09
5.79509e-10
1.7153e-09
2.61143e-09
9.76002e-10
4.68942e-10
-7.75615e-10
-1.49767e-10
4.40092e-09
6.34681e-09
-6.59411e-09
-4.74004e-09
9.78993e-09
5.27187e-10
-7.48849e-11
2.52673e-09
2.96428e-09
3.49554e-09
4.66659e-09
3.78702e-09
9.04574e-09
8.74152e-09
1.55726e-09
1.82227e-09
2.6123e-09
1.64205e-09
8.23942e-10
9.76883e-10
8.55531e-10
-4.1994e-09
-1.30483e-08
-7.52104e-09
5.42663e-09
5.82698e-09
3.84397e-10
-8.25874e-10
1.30965e-10
2.40332e-10
-1.6908e-10
-8.48843e-10
1.19019e-09
2.85787e-09
1.91952e-09
-1.75723e-09
-3.64983e-09
-7.86673e-10
8.54727e-10
-1.51499e-09
1.81867e-09
6.66682e-09
-4.72792e-09
-7.5992e-09
5.59041e-09
5.75418e-09
4.14174e-09
-1.23892e-09
-1.50068e-09
-1.07607e-10
-2.162e-09
2.64311e-09
8.38499e-09
9.14421e-09
2.44244e-09
-1.55229e-09
5.40064e-10
1.2413e-09
3.57894e-10
5.08169e-10
2.20048e-09
3.62009e-09
-3.86366e-09
-1.43494e-08
-4.13652e-09
7.09962e-09
4.12903e-09
-6.99767e-12
-3.30316e-10
1.96293e-10
1.18328e-09
-7.44929e-11
-1.71371e-10
1.85847e-09
1.8166e-09
-1.40449e-10
-2.07407e-09
-1.9852e-09
4.36695e-10
2.59999e-11
8.92475e-10
6.50669e-09
-1.44989e-10
-1.04868e-08
-1.70133e-09
5.76669e-09
1.24395e-09
-6.01831e-09
-5.06271e-09
-9.38275e-10
-4.76865e-09
-6.98695e-09
-2.56084e-09
-2.74746e-09
-2.0163e-09
1.5408e-09
2.07926e-09
1.46243e-09
1.20857e-09
7.61445e-10
1.09317e-09
4.70839e-09
6.65598e-09
-5.82204e-09
-1.35324e-08
5.86227e-10
6.50222e-09
1.39172e-09
-5.81201e-10
7.15771e-10
1.01833e-09
1.02655e-09
1.1653e-09
1.11705e-09
5.27925e-10
9.75274e-10
1.5247e-09
7.04359e-10
7.66737e-11
5.44043e-10
1.88866e-09
5.84485e-09
5.43693e-10
-9.49212e-09
-3.83392e-09
2.25908e-09
-2.91956e-09
-4.16671e-09
-6.84926e-10
1.04706e-09
-2.64129e-10
-2.13717e-09
-7.82944e-10
3.67626e-10
1.89083e-09
1.95127e-09
2.62454e-09
5.00289e-09
4.84848e-09
1.92169e-09
-1.36655e-10
1.3051e-09
5.47572e-09
2.46859e-09
-1.14891e-08
-1.01995e-08
3.21949e-09
4.40516e-09
-1.41017e-10
-4.03466e-10
1.13491e-12
9.1566e-10
7.42606e-10
5.20018e-10
2.90533e-10
1.91418e-10
6.7579e-10
1.25029e-09
8.55934e-10
6.31441e-10
1.93068e-09
4.96737e-09
9.59159e-10
-6.34869e-09
-5.12648e-10
2.17549e-09
-2.57498e-09
-1.37346e-09
1.61495e-09
1.377e-09
-2.4082e-10
-1.57094e-09
1.66429e-09
5.18783e-09
2.75158e-09
1.47349e-09
4.3071e-09
1.07487e-09
-4.77032e-09
-4.33737e-09
-1.55754e-09
1.49553e-10
3.23145e-09
4.99493e-09
-3.13246e-09
-1.24637e-08
-5.38353e-09
4.01604e-09
2.70909e-09
-6.41067e-10
2.46312e-10
8.93542e-10
2.14832e-09
1.01812e-09
-2.71896e-09
-1.90022e-09
1.43841e-09
2.07767e-09
1.40385e-09
1.01818e-09
2.38612e-09
3.58095e-09
6.56044e-10
-1.65005e-09
2.12639e-09
1.8693e-09
-7.6109e-10
3.01533e-10
9.19138e-10
2.48472e-10
-4.22205e-10
-1.68345e-09
-2.69632e-09
-4.8808e-09
-4.28609e-09
4.62027e-09
2.52888e-09
-1.09558e-08
-7.87551e-09
1.43661e-09
1.00713e-09
-6.9273e-10
1.83639e-09
7.30132e-09
6.53826e-09
-4.26691e-09
-1.02411e-08
-4.04482e-09
1.82347e-09
1.56376e-09
2.58993e-09
2.76447e-09
-7.29328e-11
-3.91255e-09
-1.92827e-09
1.61007e-09
9.58417e-10
-7.57831e-10
-6.37049e-10
1.36075e-09
2.78771e-09
2.32784e-09
-3.45323e-10
-8.23196e-10
1.41414e-09
1.60095e-09
-1.92504e-10
-1.85557e-09
-9.99021e-10
9.83472e-11
3.38839e-10
1.60263e-09
1.80078e-09
2.81576e-09
4.25824e-09
-2.14629e-09
-5.90169e-09
3.90988e-09
6.11272e-09
-8.72616e-10
2.29989e-10
2.43522e-09
-2.18892e-09
-2.20471e-09
5.27298e-09
5.2421e-09
-1.46562e-09
-4.66577e-09
-2.50497e-09
5.93673e-10
-5.89403e-10
1.86911e-09
2.53452e-09
7.81833e-10
2.65705e-10
-5.62419e-10
-2.49252e-10
1.16117e-11
-1.47867e-09
-1.73266e-10
1.42237e-09
7.9354e-11
-1.09341e-09
-1.23809e-10
9.87419e-10
4.63194e-10
-7.64873e-10
-8.34334e-10
5.76027e-10
1.14253e-09
1.80131e-10
3.04638e-10
1.51909e-09
8.20681e-10
-1.13308e-09
1.21091e-11
2.58757e-09
-3.22672e-11
-3.14692e-09
-2.42821e-09
-3.03706e-09
-3.87071e-09
-1.20617e-09
-2.74752e-09
-2.32509e-09
2.28732e-09
2.5319e-09
9.41949e-10
-2.68694e-10
-1.16135e-09
8.73084e-10
2.00434e-10
1.07454e-09
2.31396e-09
4.44726e-10
-1.29202e-09
-1.51987e-10
3.22276e-10
-2.40387e-09
-3.78772e-09
-9.60301e-10
5.20487e-10
6.13836e-10
1.09136e-09
1.07119e-09
6.45591e-10
-4.30131e-11
-9.87459e-10
-1.42758e-09
-3.82248e-10
8.72117e-10
4.89072e-10
-3.66435e-10
-5.06239e-10
-1.78829e-10
3.82235e-10
6.31093e-10
9.28067e-10
1.67403e-09
1.63956e-09
1.24386e-10
-1.50828e-09
-4.36798e-10
1.83949e-09
1.59788e-09
1.13195e-09
5.45792e-10
3.13098e-11
8.32823e-10
1.33434e-09
4.94101e-11
-1.05759e-10
3.05626e-10
6.34341e-10
4.67158e-10
7.03288e-10
1.23154e-09
7.40477e-10
-1.80197e-09
-3.53177e-09
-8.56264e-10
1.63944e-09
1.33188e-10
-6.65101e-10
3.66031e-10
1.21391e-09
1.8172e-09
1.37566e-09
3.56467e-10
3.92516e-10
7.83639e-10
-4.05648e-11
-1.12898e-09
-8.031e-10
2.54259e-10
6.8276e-10
7.26407e-10
8.23137e-10
3.57507e-10
-6.2369e-10
-1.43496e-09
-5.58083e-10
2.05024e-09
1.03771e-09
-1.52191e-09
-2.38096e-10
1.02062e-09
3.60854e-10
-4.32159e-10
-1.89536e-10
3.68155e-10
5.87578e-10
8.08258e-11
2.58106e-11
3.27234e-10
1.90664e-10
2.71026e-10
3.15798e-10
1.1142e-10
4.95261e-10
9.6233e-10
4.61012e-10
-4.24677e-10
1.76701e-10
2.98377e-10
-1.15272e-09
-1.75558e-09
-1.05278e-09
-3.24047e-10
1.34631e-11
1.72391e-10
4.92576e-10
8.80874e-10
8.286e-10
1.63382e-10
-4.57529e-10
-9.03051e-10
-1.43993e-09
-1.47585e-09
-5.41505e-10
3.14217e-10
5.58129e-10
1.03158e-09
1.59433e-09
6.60387e-11
-9.14931e-10
2.52642e-10
9.77216e-10
5.46029e-10
7.19025e-11
3.29074e-10
3.57109e-10
5.78612e-10
3.24373e-10
-8.9081e-11
-7.27977e-11
-1.15794e-10
-1.35687e-09
-3.70589e-09
-3.58732e-09
-1.19796e-10
1.58121e-09
2.03925e-10
-5.78703e-10
1.39312e-10
3.47343e-10
-6.87929e-11
-2.26965e-11
2.75854e-10
1.78402e-10
-1.39823e-10
-3.71443e-10
-4.92723e-10
-3.49821e-10
1.27568e-10
3.5193e-10
-3.00673e-11
-4.95642e-10
-5.26627e-10
-1.7966e-10
4.40697e-10
9.87235e-10
4.30624e-10
-3.11471e-10
3.57455e-10
8.28896e-10
4.77055e-10
2.68829e-10
5.19131e-10
5.92152e-10
5.64948e-10
1.64106e-10
-3.60056e-10
-1.71208e-10
7.8752e-10
7.01662e-10
-8.13527e-10
-1.44339e-09
-7.1683e-10
-5.6718e-10
-5.91606e-10
-3.72884e-11
2.37244e-10
-5.20934e-11
-8.34599e-11
3.43504e-10
7.22003e-10
8.32472e-10
6.91498e-10
2.72218e-10
-3.54065e-10
-7.9413e-10
-4.89602e-10
3.05436e-10
6.94752e-10
5.36239e-10
3.71434e-10
2.45352e-10
1.084e-10
6.90041e-11
-1.77004e-11
-7.83235e-11
1.81943e-10
1.72008e-10
-7.67277e-11
-5.30908e-11
-1.79164e-10
-1.91615e-10
2.1472e-10
5.91315e-10
2.66243e-09
4.11831e-10
7.71038e-10
3.35933e-09
1.30367e-08
2.72463e-08
3.07927e-08
1.92686e-08
5.46059e-09
2.53718e-09
7.32661e-09
8.73177e-09
6.20179e-09
1.15657e-08
3.73072e-08
8.0742e-08
1.28841e-07
1.67079e-07
1.71763e-07
1.21371e-07
4.95858e-08
-3.38841e-08
-4.61456e-08
6.38697e-08
1.60957e-07
2.05124e-07
2.01495e-07
1.58739e-07
1.1505e-07
9.16992e-08
9.55548e-08
1.36864e-07
1.91834e-07
2.05134e-07
9.54335e-08
-5.59083e-08
8.17276e-08
5.77303e-08
3.14067e-09
2.93679e-09
1.85411e-09
8.80853e-10
4.55945e-10
-4.06129e-09
-2.21196e-08
-4.02118e-08
-3.51449e-08
-1.65663e-08
-1.20205e-08
-2.34669e-08
-3.4088e-08
-4.63056e-08
-6.77536e-08
-1.00293e-07
-1.4275e-07
-1.95908e-07
-2.54563e-07
-2.89704e-07
-2.91067e-07
-2.50746e-07
-1.43035e-07
-6.33527e-08
-1.55489e-07
-2.52101e-07
-3.18886e-07
-3.77212e-07
-3.66871e-07
-2.91559e-07
-2.30887e-07
-2.46723e-07
-3.52415e-07
-4.8159e-07
-5.14076e-07
-3.77455e-07
-1.01003e-07
-8.9986e-09
-1.82235e-07
1.45449e-08
1.91148e-08
1.12487e-09
-1.42369e-09
-7.26493e-11
-1.51122e-09
-3.52824e-09
-5.60354e-09
-1.22677e-08
-2.1576e-08
-1.85847e-08
-2.74027e-09
2.08476e-09
-5.97799e-09
-1.06217e-08
-1.1289e-08
-1.02614e-08
-1.25679e-08
-1.92334e-08
-2.87123e-08
-3.37502e-08
-2.55071e-08
-1.58466e-08
1.5604e-08
8.89068e-08
8.27757e-08
1.28467e-08
-1.87882e-08
-4.83968e-08
-5.87596e-08
-4.63771e-08
-2.59116e-08
-6.31356e-09
1.13317e-08
1.57777e-08
-4.1235e-09
-3.91144e-08
-6.50806e-08
2.23711e-08
7.91087e-08
1.54233e-09
3.86406e-08
1.26085e-09
-3.2371e-10
2.71135e-09
1.23611e-09
2.28611e-09
6.82302e-09
1.28717e-08
1.372e-08
9.23494e-09
1.00408e-08
1.30878e-08
1.1019e-08
1.25719e-08
1.79202e-08
2.37304e-08
3.31247e-08
4.38038e-08
5.42873e-08
6.44234e-08
7.55736e-08
7.06211e-08
1.88485e-08
3.38574e-08
7.12295e-08
4.08464e-08
6.93432e-08
9.59092e-08
9.85833e-08
8.76827e-08
7.25803e-08
7.01276e-08
8.42306e-08
1.01356e-07
1.06667e-07
9.06285e-08
5.85811e-08
1.87261e-08
1.59091e-08
1.14364e-08
4.78721e-08
2.39092e-08
6.09514e-09
2.50712e-09
2.60075e-09
2.3325e-09
5.21256e-09
7.12979e-09
7.55904e-09
4.25882e-09
-1.29396e-09
4.80049e-09
4.86738e-09
8.57399e-10
4.95832e-09
1.10673e-08
1.48007e-08
1.20024e-08
1.09932e-08
1.3949e-08
1.14074e-08
1.80861e-08
-2.43691e-08
-6.46661e-08
1.53265e-08
5.46224e-09
-8.16955e-09
1.1326e-08
1.77437e-08
1.44048e-08
7.84698e-09
3.27713e-09
8.23374e-09
1.72268e-08
1.91553e-08
1.15288e-08
-1.52868e-09
-2.39155e-08
-7.13588e-08
-9.1321e-08
-1.99499e-08
4.12048e-08
2.54992e-08
6.6557e-10
2.27372e-09
2.31971e-09
3.91547e-09
5.40232e-09
4.83065e-09
3.46595e-09
2.17417e-09
1.04742e-10
8.57014e-09
3.80906e-09
-1.18668e-10
1.70131e-09
-5.31182e-09
-1.69969e-08
-8.56835e-09
1.12557e-09
-3.57303e-09
2.15698e-09
1.31519e-08
-4.40587e-08
-7.78442e-09
1.16317e-08
-4.42756e-08
-3.11086e-08
-6.58718e-09
-3.51498e-09
-5.89334e-11
8.07171e-09
1.39861e-08
1.75362e-08
1.62466e-08
7.56294e-09
-1.85346e-09
2.3676e-09
-2.52641e-09
-6.57378e-08
-8.29463e-08
8.07238e-09
2.67575e-08
1.16072e-08
-6.89682e-10
-1.02271e-09
1.56417e-09
5.5072e-09
8.68897e-09
3.54808e-09
2.07764e-09
4.29066e-09
3.27548e-09
1.16048e-08
7.78789e-09
1.75565e-09
-1.33007e-08
-1.86108e-08
1.89279e-09
5.29562e-09
-1.16341e-09
-1.8424e-09
1.63832e-08
-2.37867e-08
-2.66789e-08
1.44472e-08
-3.10045e-08
-1.08342e-08
5.50352e-09
1.31834e-09
-2.95376e-09
-4.45637e-09
-2.79411e-09
4.04941e-09
1.7294e-08
2.24371e-08
7.32877e-09
-3.05606e-09
1.12664e-08
2.65308e-09
-5.37494e-08
-4.42114e-08
-1.19048e-08
2.80462e-08
5.11698e-09
-4.12185e-09
-5.27708e-09
8.44127e-10
7.61818e-09
1.02197e-08
-4.5311e-09
4.17497e-09
7.07282e-09
2.76986e-09
1.16851e-08
1.89793e-09
-1.47123e-08
-3.51993e-09
7.35221e-09
3.28721e-09
2.19094e-10
6.63947e-10
1.3113e-08
-8.84022e-09
-2.74359e-08
1.10221e-08
-4.73951e-09
5.56935e-09
6.49297e-09
2.44041e-09
-4.78341e-11
-3.32298e-09
-8.54567e-09
-1.44495e-08
-1.39572e-08
3.5236e-09
1.68215e-08
2.03606e-09
-2.2362e-09
1.42682e-08
-1.16496e-09
-4.14639e-08
-2.78428e-08
1.04888e-08
2.0691e-08
1.12348e-09
-1.2478e-09
-6.87626e-09
-1.48405e-08
-3.90513e-09
1.87142e-09
-1.88244e-08
9.89743e-09
3.12585e-09
-9.53698e-09
-9.42229e-09
-1.07823e-08
2.9158e-09
7.26184e-09
1.26914e-09
4.83351e-10
2.91199e-09
7.63135e-09
6.85732e-10
-2.05402e-08
6.26552e-09
1.02908e-08
8.25073e-09
3.05917e-09
7.0364e-10
-6.77599e-10
-2.50094e-09
-5.15723e-09
-8.92698e-09
-1.38644e-08
-1.54686e-08
-9.38207e-10
9.2417e-09
-9.20661e-10
2.29551e-09
1.33418e-08
-1.1598e-09
-5.19585e-09
-2.64159e-08
4.23694e-09
6.52505e-09
-2.88747e-09
-1.47974e-08
-1.65954e-08
-1.13001e-08
-3.93487e-11
-1.13414e-08
-2.22642e-08
2.00018e-08
-6.8733e-09
-2.22258e-08
-5.07886e-09
1.03466e-08
6.74438e-09
1.27358e-09
2.36364e-10
3.10847e-09
1.14926e-09
4.29976e-11
-1.02969e-08
3.31345e-09
1.30615e-08
3.37136e-09
-8.31501e-10
-2.4781e-10
-5.37637e-10
-9.71185e-10
-2.71894e-09
-6.85498e-09
-9.83618e-09
-9.21601e-09
-6.35839e-09
2.03987e-09
5.10454e-09
2.06916e-09
6.7275e-09
1.38779e-08
1.20848e-08
-3.66658e-08
-2.41733e-08
7.53288e-09
-1.41219e-08
-2.24095e-08
-8.95e-09
-6.85167e-10
8.68424e-12
2.10057e-09
-1.86585e-08
-3.5127e-09
2.46473e-08
-3.77207e-09
4.32993e-09
9.77475e-09
3.06363e-09
-2.73978e-09
9.56165e-11
1.9454e-09
-3.14213e-09
-4.9646e-09
-2.83613e-09
-3.00328e-09
-1.95953e-09
-3.30412e-09
-6.88659e-10
-5.33356e-10
3.1726e-10
1.07295e-09
2.42571e-10
-3.25765e-09
-8.97942e-09
-6.90662e-09
2.62174e-11
2.16287e-09
2.24019e-09
3.16305e-09
4.91682e-09
9.96199e-09
1.49248e-08
-1.29367e-08
-2.86206e-08
3.56117e-09
-1.12539e-08
-1.77336e-08
-4.99433e-09
2.68731e-09
2.99322e-09
2.14523e-09
-1.82424e-09
-1.04862e-08
1.4974e-08
9.97418e-09
-9.28293e-09
-6.65373e-09
-5.31362e-09
-4.0229e-09
1.10654e-09
1.4537e-09
-3.70561e-09
-7.45793e-09
-6.35107e-09
-1.00768e-08
-6.88899e-09
-7.60535e-11
-1.48434e-09
-4.77828e-10
1.54499e-09
2.35622e-09
2.2896e-09
7.31836e-10
-6.35213e-09
-1.0957e-08
-1.30601e-09
5.26334e-09
1.2892e-09
-7.47896e-10
3.08007e-09
4.12004e-09
6.2839e-09
1.73777e-08
2.11248e-10
-1.13589e-09
-2.01247e-09
-8.61554e-10
2.69524e-09
2.15756e-09
1.77578e-09
1.24403e-09
-4.90731e-09
-7.57694e-09
5.33605e-09
9.50241e-09
-1.46265e-08
-1.36703e-08
-5.50518e-09
-1.36207e-09
1.14612e-09
2.33144e-09
-1.72642e-10
-5.14543e-09
-5.08216e-09
3.58183e-09
6.07151e-09
8.7135e-10
5.4157e-10
2.27439e-09
2.96176e-09
2.374e-09
2.67123e-09
4.80042e-09
2.54769e-09
-9.51176e-09
-8.76814e-09
3.18539e-09
4.59742e-09
-8.74038e-10
-1.00939e-09
2.28365e-09
1.11755e-11
1.1089e-08
1.52705e-08
7.05658e-10
1.69415e-09
6.95828e-09
4.17721e-09
4.85577e-10
6.47239e-10
2.95327e-09
-3.20694e-09
-1.30266e-08
-1.36447e-09
9.17926e-09
-7.0615e-09
-9.48601e-09
-1.5701e-09
-2.70759e-10
2.23266e-10
3.09298e-09
2.5704e-09
1.48181e-09
5.19092e-09
8.93205e-09
2.60529e-09
-8.20236e-10
3.15126e-09
4.03627e-09
2.5148e-10
-3.76913e-10
2.19964e-09
5.3097e-09
9.96657e-09
3.69963e-09
-9.66181e-09
-3.31897e-09
4.45568e-09
2.63899e-09
-1.54869e-09
-1.32825e-09
-8.96432e-10
1.10339e-09
2.19296e-09
-8.93988e-10
-3.79452e-10
1.14554e-09
1.32531e-09
7.87742e-10
8.71492e-10
3.43336e-09
1.50168e-09
-1.16445e-08
-8.2282e-09
7.313e-09
1.20369e-09
-1.13912e-09
1.86332e-09
1.68252e-11
-2.82924e-11
1.72115e-09
2.03206e-09
-1.41252e-09
-5.4109e-10
-5.63703e-10
-1.24601e-09
5.00894e-09
4.89399e-09
-2.72424e-09
-3.59775e-09
2.4911e-10
1.3106e-09
8.84261e-10
5.76985e-09
1.07641e-08
-1.64117e-09
-7.4518e-09
1.65872e-09
3.49501e-09
1.06582e-09
-9.30925e-10
-1.22497e-09
-2.10325e-10
-1.52094e-10
-7.1414e-10
-7.29472e-10
1.34218e-11
7.87495e-10
6.30667e-10
2.57993e-10
1.99138e-09
4.94999e-10
-9.64687e-09
-9.49319e-09
4.51206e-09
6.10082e-09
2.97835e-09
1.50085e-09
-1.89432e-10
-1.65869e-10
5.50195e-10
1.34415e-09
1.12445e-09
-2.99142e-09
-1.16231e-09
6.27199e-09
3.94395e-09
-6.29704e-09
-4.30599e-09
4.85844e-09
6.63287e-09
1.3874e-09
-2.71086e-09
1.07365e-09
9.73576e-09
5.79033e-09
-7.3527e-09
-3.22205e-09
3.36496e-09
1.88127e-09
-4.35011e-10
-7.9558e-10
-1.94844e-10
7.80107e-10
3.29401e-10
-4.02626e-11
-5.05514e-10
-9.31952e-10
-3.19841e-10
2.21646e-10
1.30667e-09
-1.00032e-09
-1.21951e-08
-1.28316e-08
1.27335e-09
5.08406e-09
-8.32257e-10
-3.6035e-09
-2.86535e-09
4.66512e-11
1.70684e-09
6.90777e-10
1.50023e-09
5.24309e-09
7.66229e-09
1.50356e-09
-1.02713e-08
-7.09882e-09
5.95829e-09
5.20759e-09
-3.15214e-09
-1.97955e-09
1.76235e-10
-1.53852e-09
5.44987e-09
9.85902e-09
-1.95135e-09
-7.89819e-09
-7.98498e-10
2.43999e-09
8.11806e-10
1.48061e-09
1.11302e-09
8.21854e-10
6.34827e-10
4.80829e-10
-1.57808e-10
-5.9782e-10
-6.29193e-10
1.55834e-10
1.19348e-09
-4.97505e-11
-9.57468e-09
-1.24999e-08
2.71887e-10
2.29473e-09
-6.92202e-09
-6.93153e-09
-1.50668e-09
1.0555e-09
1.2563e-09
8.66314e-10
8.25985e-10
2.07629e-09
-2.30367e-10
-7.80882e-09
-6.71182e-09
5.17014e-09
4.47135e-09
-5.14628e-09
-5.06468e-09
-2.38829e-09
1.13988e-09
2.26225e-09
6.04071e-10
7.98434e-09
6.91612e-09
-2.63964e-09
-3.89264e-09
7.08312e-11
1.8113e-09
7.28244e-10
1.64746e-09
1.96687e-09
1.11864e-09
-4.97775e-11
4.31416e-10
9.92827e-10
6.5446e-11
-3.67078e-10
8.59066e-10
2.78665e-10
-2.3383e-09
-1.70622e-09
2.09942e-09
-5.26132e-10
-2.2363e-09
1.46616e-09
2.18952e-09
-3.42477e-10
-7.07991e-10
1.01753e-09
5.20016e-10
-2.12846e-09
-3.70345e-09
3.76819e-10
6.18117e-09
1.3048e-09
-2.96683e-09
2.36822e-09
3.60372e-09
2.6203e-09
2.61424e-09
-6.96338e-10
-1.1715e-09
1.77443e-09
6.15274e-09
3.67193e-09
1.04354e-09
1.54659e-10
-6.68965e-11
-1.12955e-09
-1.35367e-09
2.18633e-10
1.39423e-09
1.59653e-10
-1.30104e-09
-5.56242e-10
4.31154e-10
-1.33297e-09
-3.18966e-09
-1.69627e-09
9.2804e-10
3.30158e-09
2.92475e-09
1.525e-09
1.69016e-09
1.90284e-09
1.33053e-09
1.26446e-10
-7.77306e-10
-3.92919e-10
4.48718e-10
3.23021e-10
9.91278e-10
1.80552e-09
-6.48043e-11
-1.19254e-10
1.9163e-09
1.33667e-10
-2.49902e-09
-1.27217e-09
3.45291e-09
-9.01792e-10
-9.44097e-09
-3.69014e-09
3.05777e-09
2.84613e-09
9.7889e-11
-2.88207e-10
-2.1335e-10
3.99345e-10
-3.70062e-10
-3.92992e-10
3.97279e-10
4.50079e-10
-1.78934e-10
-1.09285e-10
9.64648e-10
6.45602e-10
-2.9913e-09
-4.0138e-09
-5.74229e-10
6.29054e-10
5.38874e-10
9.92527e-10
8.78951e-10
6.762e-10
7.89913e-10
6.59475e-10
3.04526e-10
-6.60919e-11
5.11278e-11
5.03163e-10
5.40426e-10
4.72786e-10
7.35139e-10
9.34512e-10
7.89006e-10
1.90214e-10
-1.41598e-09
-2.3333e-09
3.89507e-10
3.22523e-09
-1.33378e-09
-3.49532e-09
1.46784e-09
1.57149e-09
-1.79814e-09
-1.66615e-09
1.84338e-10
-1.06548e-10
-1.1588e-10
3.80367e-10
6.04848e-10
3.37704e-10
3.17981e-11
2.73661e-10
1.37828e-09
1.61693e-09
-1.23447e-09
-3.12486e-09
3.40649e-10
1.6636e-09
-1.26274e-09
-1.66015e-09
-2.44216e-10
-1.87708e-10
-6.0914e-10
-4.66792e-11
6.44921e-10
3.76165e-10
-1.32067e-10
1.61158e-10
8.52408e-10
8.25248e-10
-2.04371e-10
-1.51657e-09
-2.08775e-09
-1.52444e-09
-4.33101e-10
8.11901e-10
1.93817e-09
1.14273e-09
1.35234e-10
1.07682e-09
8.96504e-10
3.54973e-10
1.84145e-10
-8.76818e-11
-9.98115e-11
1.01046e-09
1.36785e-10
-5.98025e-10
1.88821e-11
9.18689e-10
7.36925e-10
4.30845e-10
9.98237e-10
8.64009e-10
-1.09177e-10
-1.98876e-10
7.59924e-10
8.97444e-10
2.94495e-10
2.50368e-10
-9.25281e-11
-6.47017e-10
-8.70103e-10
-5.05521e-10
1.23019e-10
5.36228e-10
6.94334e-10
5.43275e-10
-2.70415e-10
-1.35151e-09
-1.16081e-09
1.08581e-10
3.35696e-10
-2.86369e-10
-5.0615e-11
6.89043e-10
8.01656e-10
8.04603e-10
5.24819e-10
9.12261e-10
1.52616e-09
5.0636e-10
-3.71532e-10
2.51131e-11
8.58198e-10
7.56027e-10
5.61796e-10
3.64451e-10
9.89814e-11
1.36076e-10
5.4421e-10
7.55591e-10
7.08333e-10
-1.41153e-10
-2.39664e-09
-3.00999e-09
-7.9938e-10
1.91017e-10
-2.8316e-10
2.00247e-10
1.24629e-09
1.35953e-09
4.73771e-10
-4.90755e-10
-8.32474e-10
-5.95053e-10
-1.29629e-10
4.31485e-10
9.78744e-10
1.24239e-09
1.10206e-09
7.28653e-10
2.18526e-10
-1.47465e-10
1.75901e-10
8.23394e-10
2.11924e-10
-1.21055e-09
-6.87885e-10
5.23497e-10
3.7584e-10
-6.23978e-10
-9.64123e-10
-2.03178e-10
6.20034e-10
-4.17433e-10
-1.48083e-10
-1.74073e-10
3.04596e-10
4.36872e-10
-4.73123e-10
-1.02709e-09
-3.34386e-10
5.10693e-10
8.09586e-10
6.68565e-10
4.98564e-10
5.10014e-10
3.76506e-10
2.4802e-10
4.91667e-10
1.01433e-09
1.39067e-09
1.27144e-09
6.78216e-10
1.14407e-10
1.45067e-10
5.99943e-10
5.47375e-10
1.56664e-10
2.32801e-10
5.79367e-10
3.40898e-10
-1.47353e-10
-7.16662e-11
2.20257e-10
2.76449e-10
-1.43391e-10
-5.62184e-10
-1.31341e-10
2.26388e-10
-2.72974e-10
-1.31182e-09
-1.89555e-09
-1.37295e-09
-3.3103e-09
3.04615e-09
3.96231e-09
1.08512e-08
2.27782e-08
3.01311e-08
3.07375e-08
2.70887e-08
2.29914e-08
1.93837e-08
1.70416e-08
2.03162e-08
3.15488e-08
5.15552e-08
7.83248e-08
1.04338e-07
1.31407e-07
1.77288e-07
2.45681e-07
2.62764e-07
1.36022e-07
2.63856e-08
-1.00598e-08
1.23653e-08
7.30285e-08
8.48671e-08
7.07164e-08
6.49227e-08
7.58345e-08
1.06864e-07
1.6082e-07
2.15002e-07
2.09557e-07
1.1743e-07
1.98024e-10
-3.17841e-08
2.62295e-08
2.69689e-08
3.44398e-09
-4.29791e-09
1.12974e-09
1.10352e-09
-4.65341e-09
-1.99535e-08
-4.12268e-08
-5.25311e-08
-5.0028e-08
-3.62218e-08
-2.38605e-08
-2.63313e-08
-5.25408e-08
-9.9983e-08
-1.58775e-07
-2.20943e-07
-2.85752e-07
-3.54075e-07
-4.28503e-07
-5.02545e-07
-5.3875e-07
-4.31318e-07
-1.85023e-07
-3.73543e-08
1.1251e-08
-5.3199e-08
-7.77187e-08
-6.23752e-08
-6.20959e-08
-8.73824e-08
-1.59367e-07
-2.90496e-07
-4.30074e-07
-4.72827e-07
-3.54888e-07
-1.54387e-07
-2.09372e-08
-2.4462e-08
-5.6748e-08
5.54405e-09
1.80604e-08
-9.05199e-10
1.4097e-09
9.02029e-10
-6.56982e-10
-5.61271e-09
-1.31086e-08
-1.97487e-08
-2.35857e-08
-2.762e-08
-3.14529e-08
-2.95348e-08
-2.13284e-08
-1.6031e-08
-1.61036e-08
-1.64237e-08
-1.36757e-08
-4.53067e-09
9.44211e-09
1.43453e-08
-5.7778e-09
-5.15905e-08
-6.23232e-08
6.16293e-09
7.48093e-08
4.4825e-08
-3.34266e-08
-5.51757e-08
-5.74012e-08
-4.28365e-08
-2.53936e-08
-1.54684e-08
-1.70635e-08
-3.35161e-08
-5.67748e-08
-5.79038e-08
-2.02064e-08
4.31219e-08
6.54147e-08
3.7733e-08
4.50602e-08
1.62082e-08
9.34489e-09
3.42009e-09
3.78547e-09
6.1029e-09
9.23197e-09
1.22366e-08
1.34826e-08
1.36864e-08
1.39045e-08
1.43048e-08
1.80178e-08
2.42246e-08
3.12166e-08
4.10145e-08
5.46066e-08
6.96564e-08
8.67811e-08
1.03437e-07
1.15001e-07
1.10978e-07
6.62344e-08
2.73114e-09
1.26671e-08
5.91546e-08
2.40223e-08
3.37806e-08
4.06918e-08
4.12836e-08
5.3211e-08
7.38373e-08
9.29724e-08
1.02025e-07
9.22534e-08
6.36028e-08
3.11737e-08
1.13835e-08
1.56262e-08
2.30525e-08
4.13417e-08
4.68117e-08
2.76832e-08
4.72244e-09
2.85163e-09
2.70906e-09
3.43692e-09
5.19569e-09
5.7124e-09
5.67421e-09
9.31169e-09
1.21329e-08
1.11463e-08
1.158e-08
1.22409e-08
1.13055e-08
1.07542e-08
1.38182e-08
1.79344e-08
1.98744e-08
1.74841e-08
1.93009e-08
2.31995e-08
-2.27394e-08
-8.49881e-08
-4.37246e-09
7.77614e-09
8.7925e-10
1.76088e-08
1.16013e-08
4.05984e-09
9.48042e-09
1.80795e-08
2.13584e-08
1.89744e-08
8.82492e-09
-1.29466e-08
-4.97599e-08
-7.78474e-08
-6.59967e-08
-2.79858e-08
4.96239e-08
5.71709e-08
1.10191e-08
2.73586e-09
2.01303e-09
3.30313e-10
-3.99691e-12
2.94438e-10
-3.09136e-09
-6.00618e-09
-3.25878e-10
4.40593e-09
4.69021e-09
3.22108e-09
-5.78914e-10
-2.08967e-09
3.21206e-09
6.46274e-09
3.18348e-09
4.4142e-09
-5.84232e-09
-4.21058e-09
2.36049e-08
-2.47199e-08
-3.04184e-08
1.2464e-08
-2.51703e-08
-1.5772e-08
1.35934e-09
1.86061e-09
1.64125e-10
3.03583e-09
6.09401e-09
7.72314e-09
6.94707e-09
3.696e-09
3.48823e-11
-1.90799e-08
-4.90638e-08
-6.52904e-08
-6.7442e-09
3.6677e-08
2.97524e-08
2.74739e-09
2.84825e-09
7.21776e-10
-6.81653e-10
6.5353e-10
-7.43531e-10
-1.00066e-08
-1.62659e-08
-5.61313e-09
5.60748e-09
7.87283e-09
5.26913e-09
4.07164e-09
7.22957e-09
3.1369e-09
-2.45246e-09
9.04166e-10
-1.39296e-09
-2.6357e-09
2.1247e-08
5.45985e-09
-3.76585e-08
6.29533e-09
-1.7913e-08
-1.84114e-08
-3.53445e-09
1.74592e-09
3.28411e-09
4.00577e-09
5.47273e-09
1.0684e-08
1.83504e-08
1.62308e-08
8.39318e-09
5.06368e-09
-1.10423e-08
-4.97221e-08
-7.47747e-08
-5.10915e-08
4.24869e-08
7.71718e-09
1.28851e-09
2.34231e-09
5.45304e-10
-5.82075e-10
1.1396e-09
2.26393e-09
-7.45703e-09
-1.57425e-08
-5.60795e-09
7.19916e-09
9.05174e-09
7.98804e-09
4.9055e-09
-1.28613e-09
-1.80617e-09
-2.03354e-09
-9.61267e-10
5.52772e-09
1.52552e-08
-7.54227e-10
-1.42038e-08
6.61711e-09
-3.50581e-09
-1.97842e-09
5.77266e-10
2.15197e-10
-1.03215e-09
-3.96465e-09
-7.72525e-09
-1.04892e-08
-3.09351e-09
1.47619e-08
1.65781e-08
9.59124e-09
8.6615e-09
-1.07758e-08
-7.97944e-08
-1.04859e-07
4.04522e-09
1.90857e-08
-5.38552e-10
9.43274e-10
3.79344e-09
2.80771e-09
1.73595e-09
5.25791e-09
1.0308e-08
-2.41693e-09
-1.30507e-08
-3.58696e-09
3.25298e-09
7.20299e-09
2.91516e-09
-3.80443e-09
-4.51443e-10
-1.38221e-09
-5.80905e-11
7.26202e-09
7.8468e-09
-7.52125e-09
-3.75419e-09
8.37966e-09
6.96931e-09
5.75512e-09
2.65859e-09
7.23846e-10
-3.74533e-10
-1.73927e-09
-5.90428e-09
-1.51575e-08
-2.44537e-08
-1.74568e-08
4.94005e-09
1.10641e-08
9.72383e-09
1.08373e-08
-3.19895e-08
-7.76754e-08
-5.5089e-08
1.84343e-08
5.02393e-09
2.92988e-09
4.01207e-09
2.97556e-09