/*--------------------------------*- C++ -*----------------------------------*\
| =========                 |                                                 |
| \\      /  F ield         | OpenFOAM: The Open Source CFD Toolbox           |
|  \\    /   O peration     | Version:  5.0                                   |
|   \\  /    A nd           | Web:      www.OpenFOAM.org                      |
|    \\/     M anipulation  |                                                 |
\*---------------------------------------------------------------------------*/
FoamFile
{
    version     2.0;
    format      ascii;
    class       volScalarField;
    location    "50.4676134421789371";
    object      viscDissMean;
}
// * * * * * * * * * * * * * * * * * * * * * * * * * * * * * * * * * * * * * //

dimensions      [0 2 -3 0 0 0 0];

internalField   nonuniform List<scalar> 
60000
(
-4.21732e-08
-2.28914e-08
-3.05686e-08
-3.48273e-08
-2.42857e-08
-2.24288e-08
-2.06774e-08
-1.42243e-08
-3.93131e-08
-8.64966e-08
-8.9989e-08
-4.74017e-08
-1.35832e-08
-6.19594e-09
-1.59273e-08
-3.76534e-08
-6.09862e-08
-8.58345e-08
-1.30852e-07
-1.86956e-07
-2.67247e-07
-4.51415e-07
-6.51774e-07
-8.15475e-07
-1.05993e-06
-1.34398e-06
-1.39718e-06
-1.02106e-06
-4.69378e-07
-1.53082e-07
-1.08106e-07
-2.07237e-07
-3.22908e-07
-3.15949e-07
-1.74317e-07
-6.72118e-08
-1.20372e-08
-2.77208e-08
-8.69899e-08
-8.10975e-08
-3.74133e-08
-1.9758e-08
-8.83336e-09
-3.41027e-09
-3.09012e-09
-6.57496e-09
-4.52784e-09
-9.76895e-10
-8.76729e-09
-3.26337e-08
-4.74264e-08
-3.58285e-08
-1.08241e-08
-2.20612e-09
-8.01965e-09
-2.18789e-08
-3.56795e-08
-3.00719e-08
-1.23109e-08
-7.37138e-09
-1.81401e-08
-4.35693e-08
-7.40227e-08
-7.14919e-08
-6.82132e-08
-7.7253e-08
-8.77652e-08
-9.30083e-08
-7.45814e-08
-3.0172e-08
-8.92667e-09
-1.05484e-08
-1.53921e-08
-3.45213e-08
-5.32772e-08
-2.77548e-08
-6.66845e-09
-7.30185e-09
-1.54322e-08
-3.8977e-08
-8.23479e-09
-9.71748e-09
-6.40139e-09
-4.09426e-09
-1.00441e-09
-6.95725e-09
-1.2171e-08
-1.09031e-08
-8.67558e-09
-5.16564e-09
-5.88307e-09
-6.2474e-09
-3.88135e-09
-5.3303e-09
-7.98688e-09
-5.81548e-09
-6.14286e-09
-8.37379e-09
-2.66898e-08
-6.15163e-08
-9.22522e-08
-9.23917e-08
-7.98614e-08
-8.1057e-08
-1.11448e-07
-1.65365e-07
-2.03298e-07
-1.85707e-07
-1.24243e-07
-7.42013e-08
-7.27835e-08
-1.04376e-07
-1.11748e-07
-7.73442e-08
-2.73736e-08
-7.19671e-09
-1.09042e-08
-3.70537e-08
-2.41911e-08
-4.51937e-09
-5.3068e-09
-7.75215e-09
-5.67777e-09
-3.65409e-09
-4.00638e-09
-9.53825e-09
-1.91004e-08
-2.38791e-08
-2.46865e-08
-1.73311e-08
-8.88006e-09
-7.98885e-09
-8.30111e-09
-1.30102e-08
-1.74889e-08
-1.17418e-08
-6.43406e-09
-8.83397e-09
-3.08306e-08
-7.1819e-08
-8.92837e-08
-6.96169e-08
-4.02728e-08
-3.82779e-08
-5.20635e-08
-7.6278e-08
-9.17014e-08
-8.3615e-08
-6.49104e-08
-5.55164e-08
-6.23704e-08
-8.60924e-08
-1.07282e-07
-1.04395e-07
-6.89838e-08
-3.36444e-08
-2.71603e-08
-4.58371e-08
-5.46953e-08
-2.11533e-08
-2.2354e-09
-5.21219e-09
-7.55075e-09
-2.75917e-09
-2.39042e-09
-3.29843e-09
-7.26114e-09
-1.58225e-08
-2.50098e-08
-2.44883e-08
-9.38604e-09
-7.60279e-09
-9.74852e-09
-3.56369e-09
-4.38035e-09
-9.01581e-09
-9.38753e-09
-6.25262e-09
-5.23236e-09
-2.90675e-08
-6.70209e-08
-5.85108e-08
-1.98564e-08
-1.59261e-08
-1.97324e-08
-1.94786e-08
-1.29887e-08
-4.04469e-09
-1.94408e-09
-7.73558e-09
-6.80131e-09
-5.93262e-09
-1.8512e-08
-3.62043e-08
-3.57276e-08
-1.29697e-08
-8.1039e-09
-1.49245e-08
-2.93346e-08
-2.45331e-08
-1.23136e-08
-5.72744e-10
-7.3195e-09
-7.3757e-09
-5.66077e-09
-5.27023e-09
-2.49832e-09
-2.17748e-09
-1.25295e-08
-2.85709e-08
-2.54022e-08
-6.83417e-09
-8.74983e-09
-1.07356e-08
-8.71755e-09
-1.6928e-08
-1.88677e-08
-1.52018e-08
-1.40504e-08
-6.04355e-09
-4.4125e-08
-6.8685e-08
-2.74099e-08
-9.6461e-09
-1.69777e-08
-1.36863e-08
-4.43183e-09
-1.26161e-09
-3.07647e-09
-1.78875e-08
-4.06228e-08
-3.72235e-08
-1.46756e-08
-6.57131e-09
-1.77254e-08
-1.40882e-08
-3.71711e-09
-1.32287e-08
-1.55654e-08
-2.13097e-08
-1.79362e-08
-8.5127e-09
-2.03515e-10
-3.11951e-09
-8.14842e-09
-1.42714e-08
-1.27658e-08
-4.8049e-09
-4.36198e-10
-1.46231e-08
-3.91448e-08
-2.89234e-08
-7.32259e-09
-8.93202e-09
-1.76933e-08
-2.38915e-08
-1.5573e-08
-1.30475e-08
-2.22796e-08
-1.59411e-08
-1.41124e-08
-6.79779e-08
-5.10778e-08
-1.94148e-08
-1.91773e-08
-8.15975e-09
-2.6791e-09
-1.54515e-09
-9.41154e-10
-3.28282e-09
-1.75318e-08
-4.21838e-08
-4.55708e-08
-2.18989e-08
-4.93419e-09
-1.15144e-08
-9.10464e-09
-6.92036e-09
-1.34534e-08
-1.4334e-08
-1.2589e-08
-1.45191e-08
-7.39858e-09
-1.97825e-09
-2.80539e-09
-1.18237e-08
-2.04993e-08
-1.93963e-08
-1.00321e-08
-7.44451e-10
-2.12892e-08
-4.55831e-08
-2.33729e-08
-1.25024e-08
-1.94761e-08
-1.45072e-08
-6.86532e-09
-9.24691e-09
-1.61006e-08
-3.30403e-08
-7.67363e-09
-3.69593e-08
-7.05827e-08
-4.15125e-08
-1.75195e-08
-4.94498e-09
-3.68659e-09
-1.81115e-09
-5.7104e-10
-1.50208e-09
-3.83998e-09
-1.31348e-08
-3.25424e-08
-4.10778e-08
-2.29328e-08
-4.3722e-09
-7.01354e-09
-7.98905e-09
-8.14752e-09
-1.06713e-08
-8.40807e-09
-1.02547e-08
-8.97649e-09
-4.78357e-09
-3.5833e-09
-5.58834e-09
-8.97036e-09
-1.3482e-08
-2.10742e-08
-1.65026e-08
-1.42181e-09
-2.77536e-08
-3.86543e-08
-2.22304e-08
-1.26631e-08
-2.49188e-09
-6.63287e-09
-7.63553e-09
-7.03421e-09
-2.84985e-08
-3.23923e-08
-6.47652e-09
-5.51692e-08
-5.08073e-08
-1.46344e-08
-4.32831e-09
-4.07696e-09
-1.42162e-09
-3.40137e-10
-1.31491e-09
-2.75147e-09
-4.4634e-09
-9.28867e-09
-1.99203e-08
-2.61918e-08
-1.55826e-08
-3.81682e-09
-5.18276e-09
-6.74476e-09
-6.58638e-09
-5.60192e-09
-6.54656e-09
-3.58335e-09
-2.96929e-09
-5.25803e-09
-6.32997e-09
-5.04603e-09
-1.62399e-09
-6.44198e-09
-2.41373e-08
-1.8459e-08
-2.44288e-09
-3.35507e-08
-3.14054e-08
-9.4222e-09
-3.03557e-09
-6.67182e-09
-4.60294e-09
-3.29104e-09
-1.1734e-08
-3.6922e-08
-9.4868e-09
-1.85773e-08
-3.7791e-08
-1.25266e-08
-6.09377e-09
-3.93644e-09
-8.09445e-10
-1.21229e-10
-1.06138e-09
-2.25618e-09
-3.55883e-09
-5.20931e-09
-7.06334e-09
-9.1387e-09
-9.67879e-09
-6.09009e-09
-2.72205e-09
-3.52447e-09
-4.20381e-09
-4.85242e-09
-6.11812e-09
-2.41196e-09
-3.16169e-09
-6.57235e-09
-7.60039e-09
-6.03063e-09
-3.20895e-09
-2.45427e-10
-7.88041e-09
-2.67059e-08
-1.03069e-08
-9.72326e-09
-3.61566e-08
-1.96136e-08
-4.96094e-09
-2.53832e-09
-2.77284e-09
-2.91853e-09
-5.88755e-09
-1.63543e-08
-1.66516e-08
-1.28941e-09
-1.23156e-08
-1.1495e-08
-8.36004e-09
-3.30143e-09
-7.39502e-10
-3.68407e-10
-1.11133e-09
-1.84757e-09
-2.51281e-09
-4.47815e-09
-6.26422e-09
-5.70146e-09
-3.4726e-09
-1.92978e-09
-1.92536e-09
-2.33538e-09
-3.15893e-09
-4.14442e-09
-6.6193e-09
-3.1454e-09
-2.87811e-09
-7.42953e-09
-7.70979e-09
-4.72118e-09
-3.38929e-09
-1.66339e-09
-7.27055e-10
-1.18026e-08
-1.8489e-08
-1.32111e-09
-2.22054e-08
-2.67133e-08
-7.74189e-09
-1.07119e-09
-2.51943e-09
-4.83283e-09
-8.70089e-09
-1.04e-08
-9.82656e-09
-4.02741e-09
-5.52157e-09
-1.10997e-08
-7.98773e-09
-3.63665e-09
-1.40452e-09
-7.77848e-10
-1.44299e-09
-2.2171e-09
-1.53963e-09
-2.62851e-09
-6.95794e-09
-7.78561e-09
-4.10188e-09
-1.13e-09
-6.20267e-10
-1.00666e-09
-1.79302e-09
-1.96094e-09
-3.27413e-09
-2.82394e-09
-4.62397e-09
-7.69569e-09
-5.31881e-09
-2.52859e-09
-2.95525e-09
-2.20546e-09
-2.99091e-10
-3.98432e-09
-1.17884e-08
-3.84993e-09
-9.39008e-09
-2.45843e-08
-1.29573e-08
-2.54746e-09
-2.33624e-09
-6.94115e-09
-1.06349e-08
-1.21886e-08
-7.14155e-09
-3.19472e-09
-5.96652e-09
-8.93573e-09
-7.62163e-09
-3.58991e-09
-1.21755e-09
-5.9542e-10
-1.38846e-09
-3.26199e-09
-3.22962e-09
-5.92393e-10
-4.6129e-09
-1.06924e-08
-7.67254e-09
-2.15057e-09
-5.69406e-10
-7.89023e-10
-8.66438e-10
-1.18561e-09
-6.17312e-10
-2.35527e-09
-7.11999e-09
-6.32285e-09
-2.13709e-09
-7.43479e-10
-2.36261e-09
-3.07892e-09
-1.55399e-09
-2.86812e-09
-7.24564e-09
-4.24524e-09
-5.69004e-09
-1.93557e-08
-1.40654e-08
-2.6437e-09
-1.23153e-09
-4.91605e-09
-7.15392e-09
-7.51997e-09
-6.3683e-09
-1.42531e-09
-3.85095e-09
-8.18046e-09
-4.80859e-09
-2.23107e-09
-8.99823e-10
-4.93576e-10
-1.22554e-09
-3.56609e-09
-6.48844e-09
-3.68441e-09
-5.89557e-10
-8.27983e-09
-1.12241e-08
-4.9832e-09
-9.17908e-10
-6.83758e-10
-9.07671e-10
-7.57923e-10
-7.42313e-10
-2.54891e-09
-4.82925e-09
-2.99294e-09
-9.07962e-10
-8.79804e-10
-1.34413e-09
-1.78711e-09
-1.81964e-09
-3.39118e-09
-5.9398e-09
-4.21576e-09
-3.6875e-09
-1.20162e-08
-9.66712e-09
-2.13687e-09
-1.33044e-09
-1.42988e-09
-3.15557e-09
-4.81036e-09
-3.73689e-09
-2.0716e-09
-2.98049e-09
-3.98934e-09
-3.82312e-09
-2.02196e-09
-1.00957e-09
-1.63373e-09
-2.06758e-09
-2.84221e-09
-6.03012e-09
-7.73781e-09
-2.43915e-09
-2.54081e-09
-9.80293e-09
-7.92685e-09
-2.41608e-09
-6.80182e-10
-9.10311e-10
-6.55033e-10
-4.37498e-10
-1.5372e-09
-2.16067e-09
-1.2298e-09
-5.62542e-10
-1.10879e-09
-1.62117e-09
-1.02966e-09
-8.53692e-10
-2.60839e-09
-5.32123e-09
-3.05091e-09
-6.03687e-10
-5.07072e-09
-5.85818e-09
-2.25359e-09
-9.44645e-10
-8.71996e-10
-1.29904e-09
-2.76385e-09
-3.97482e-09
-2.88968e-09
-2.90638e-09
-6.15295e-09
-5.36102e-09
-2.95644e-09
-4.23037e-09
-5.73103e-09
-4.34486e-09
-2.46999e-09
-3.25356e-09
-6.48728e-09
-5.98234e-09
-1.30346e-09
-4.03295e-09
-7.76246e-09
-4.56237e-09
-1.51882e-09
-9.76404e-10
-1.07608e-09
-8.86701e-10
-1.36418e-09
-1.89958e-09
-1.43539e-09
-9.88885e-10
-1.51202e-09
-2.15976e-09
-1.73277e-09
-1.13337e-09
-2.04054e-09
-4.32663e-09
-3.68067e-09
-1.05231e-09
-2.85956e-09
-3.99875e-09
-1.85928e-09
-1.39093e-09
-1.72772e-09
-9.71584e-10
-8.40215e-10
-1.14594e-09
-2.54522e-09
-5.51414e-09
-7.43183e-09
-7.20184e-09
-6.9762e-09
-5.38542e-09
-3.34451e-09
-2.96695e-09
-2.65889e-09
-1.99699e-09
-4.39432e-09
-7.45173e-09
-4.75718e-09
-1.04654e-09
-3.28495e-09
-5.14412e-09
-3.54367e-09
-1.77228e-09
-2.6556e-09
-1.88277e-09
-2.53803e-09
-2.61225e-09
-7.93131e-10
-1.58279e-09
-3.30842e-09
-2.93262e-09
-2.38984e-09
-1.93762e-09
-2.15002e-09
-3.26523e-09
-3.79686e-09
-3.18162e-09
-3.3619e-09
-4.77218e-09
-4.31074e-09
-2.15272e-09
-1.51478e-09
-1.43046e-09
-1.02885e-09
-1.37132e-09
-1.43559e-09
-2.54015e-09
-7.27314e-09
-1.22833e-08
-7.31864e-09
-5.88015e-10
-4.58627e-09
-7.97897e-09
-4.71496e-09
-8.68132e-10
-1.70149e-09
-8.1413e-09
-9.98314e-09
-5.15062e-09
-1.11082e-09
-1.83452e-09
-3.84505e-09
-3.90782e-09
-5.68631e-09
-6.34516e-09
-4.38881e-09
-1.31952e-09
-1.76338e-09
-4.40139e-09
-3.63371e-09
-1.15608e-09
-1.42734e-09
-3.04856e-09
-2.7519e-09
-1.91012e-09
-1.89883e-09
-2.30894e-09
-3.72747e-09
-5.20882e-09
-3.04213e-09
-5.09731e-10
-1.89911e-09
-2.75504e-09
-1.25649e-09
-2.18317e-09
-5.10557e-09
-8.49528e-09
-9.39216e-09
-3.19983e-09
-8.98125e-10
-8.2839e-09
-9.89048e-09
-5.35252e-09
-5.37207e-09
-6.68299e-09
-1.94769e-09
-1.53221e-09
-8.08084e-09
-8.86969e-09
-4.90535e-09
-1.39438e-09
-9.56674e-10
-3.15175e-09
-2.59068e-09
-5.58288e-09
-5.21625e-09
-2.12314e-09
-1.63018e-09
-1.77691e-09
-1.30345e-09
-5.07074e-10
-5.94677e-10
-2.32624e-09
-2.53191e-09
-9.1445e-10
-7.92494e-10
-1.84093e-09
-2.48658e-09
-2.30335e-09
-9.72485e-10
-3.12247e-10
-1.78236e-09
-3.38052e-09
-2.11155e-09
-4.91268e-10
-2.03695e-09
-3.03093e-09
-1.07842e-09
-8.01421e-10
-2.73804e-09
-2.14794e-09
-6.64127e-10
-4.01125e-10
-8.30216e-10
-5.03181e-09
-8.68751e-09
-2.94616e-09
-9.08416e-10
-4.75299e-09
-4.70377e-09
-2.57332e-09
-1.10201e-09
-8.7134e-10
-1.13111e-09
-8.49957e-10
-1.11421e-09
-7.75436e-10
-2.52864e-10
-3.51462e-10
-7.75085e-10
-7.11979e-10
-2.69673e-10
-5.2321e-10
-6.12417e-10
-4.12644e-10
-1.16853e-09
-1.16229e-09
-7.85022e-10
-1.54736e-09
-1.95046e-09
-1.05207e-09
-2.21033e-10
-8.15728e-10
-1.49825e-09
-9.46747e-10
-6.26582e-10
-6.47093e-10
-3.68234e-10
-6.32377e-10
-9.46775e-10
-8.5471e-10
-8.73143e-10
-7.19229e-10
-3.76498e-10
-1.91365e-09
-6.08435e-09
-6.41523e-09
-1.92468e-09
-1.55586e-09
-3.01558e-09
-2.79784e-09
-2.57033e-09
-2.11232e-09
-1.26102e-09
-8.54802e-10
-9.1563e-10
-9.81047e-10
-1.05391e-09
-9.63046e-10
-8.39308e-10
-9.9896e-10
-8.43402e-10
-8.35783e-10
-1.22171e-09
-6.31117e-10
-1.17429e-10
-7.56154e-10
-1.29912e-09
-2.04986e-09
-3.32672e-09
-3.19987e-09
-1.43139e-09
-4.39524e-10
-1.05511e-09
-1.50416e-09
-1.16059e-09
-1.12702e-09
-1.70349e-09
-2.18242e-09
-2.12857e-09
-1.5173e-09
-7.31914e-10
-3.67658e-10
-4.68077e-10
-1.4801e-09
-4.21557e-09
-4.62435e-09
-1.54959e-09
-9.10382e-10
-1.78819e-09
-1.48873e-09
-1.17261e-09
-1.46756e-09
-1.09188e-09
-1.00178e-09
-3.58372e-10
-2.68885e-10
-9.13417e-10
-1.26217e-09
-8.45859e-10
-2.86167e-10
-3.63767e-10
-1.076e-09
-1.72783e-09
-1.32948e-09
-5.11923e-10
-1.09375e-09
-1.64902e-09
-1.02741e-09
-1.21087e-09
-1.87201e-09
-1.14208e-09
-1.3336e-10
-5.73979e-10
-1.76566e-09
-2.23598e-09
-1.71571e-09
-9.96313e-10
-7.3135e-10
-7.13479e-10
-5.87584e-10
-3.53842e-10
-2.23474e-10
-7.19879e-10
-1.38627e-09
-1.42419e-09
-1.68417e-09
-1.13111e-09
-1.68359e-10
-3.9158e-10
-6.88593e-10
-5.6923e-10
-6.8624e-10
-8.88622e-10
-7.44902e-10
-5.78975e-10
-3.80954e-10
-6.1012e-10
-1.38398e-09
-1.58055e-09
-7.87293e-10
-1.97446e-10
-6.65419e-10
-1.60939e-09
-1.83431e-09
-1.00763e-09
-2.31801e-10
-2.45304e-10
-2.55357e-10
-2.54748e-10
-6.96225e-10
-7.91006e-10
-3.60447e-10
-4.64976e-10
-1.04419e-09
-9.96663e-10
-4.73725e-10
-3.08921e-10
-3.30733e-10
-2.03751e-10
-2.60419e-10
-3.89808e-10
-2.29555e-10
-5.91644e-10
-1.99443e-09
-2.12089e-09
-6.49395e-10
-6.3213e-10
-1.2558e-09
-9.19444e-10
-3.30495e-10
-3.33311e-10
-7.36783e-10
-1.14386e-09
-7.62046e-10
-3.40711e-10
-6.8881e-10
-1.50783e-09
-1.70611e-09
-1.26221e-09
-1.14985e-09
-1.3432e-09
-1.10967e-09
-9.04037e-10
-1.19586e-09
-1.43089e-09
-9.89757e-10
-3.56638e-10
-2.14337e-10
-5.52387e-10
-8.09764e-10
-7.14188e-10
-4.99618e-10
-3.45407e-10
-1.84804e-10
-2.22722e-10
-6.40637e-10
-7.81884e-10
-3.96323e-10
-2.54792e-10
-4.98529e-10
-5.1686e-10
-2.78035e-10
-2.35264e-10
-7.40094e-10
-1.33185e-09
-1.1294e-09
-6.64641e-10
-6.06763e-10
-5.63633e-10
-4.31971e-10
-5.24517e-10
-9.27093e-10
-9.74585e-09
-5.60422e-09
-2.91574e-09
-1.39863e-08
-4.64333e-08
-7.4141e-08
-6.77605e-08
-4.06514e-08
-3.20683e-08
-5.56271e-08
-9.31395e-08
-1.37169e-07
-1.97109e-07
-2.77833e-07
-3.69264e-07
-4.52921e-07
-5.09286e-07
-5.1032e-07
-4.6753e-07
-4.13518e-07
-3.08379e-07
-2.27658e-07
-3.81136e-07
-5.98585e-07
-7.2252e-07
-7.64419e-07
-6.8438e-07
-5.22911e-07
-4.18211e-07
-4.78651e-07
-7.09737e-07
-9.46014e-07
-9.487e-07
-6.1971e-07
-1.47032e-07
-8.30454e-08
-2.58451e-07
-7.51819e-08
-2.50196e-09
-4.56737e-09
-6.15065e-09
-2.44206e-09
-1.59047e-09
-4.76376e-09
-1.02694e-08
-1.6614e-08
-1.98289e-08
-1.48202e-08
-4.58338e-09
-2.05615e-09
-6.50712e-09
-8.71702e-09
-1.00164e-08
-1.64234e-08
-3.0681e-08
-4.82992e-08
-5.98695e-08
-6.6084e-08
-6.61615e-08
-4.25331e-08
-2.11416e-08
-2.97149e-08
-1.58562e-08
-4.31415e-08
-7.75555e-08
-9.47795e-08
-9.86695e-08
-7.83778e-08
-4.33053e-08
-2.27351e-08
-2.32441e-08
-3.31588e-08
-4.78511e-08
-6.76732e-08
-9.05461e-08
-4.80551e-08
-2.0165e-08
-8.80259e-08
-2.38331e-08
-7.1526e-09
-4.51236e-09
-2.79597e-09
-5.95068e-10
-2.0495e-09
-7.78743e-09
-1.25505e-08
-8.9937e-09
-6.38439e-09
-1.21643e-08
-1.63764e-08
-1.37708e-08
-1.06199e-08
-1.29738e-08
-2.13698e-08
-3.1115e-08
-4.20788e-08
-5.58418e-08
-7.28394e-08
-9.28136e-08
-9.0641e-08
-9.68661e-08
-1.72434e-07
-1.70139e-07
-9.5302e-08
-6.70357e-08
-6.76202e-08
-8.73027e-08
-1.03779e-07
-1.11417e-07
-1.26298e-07
-1.5318e-07
-1.70752e-07
-1.60963e-07
-1.18069e-07
-5.05471e-08
-1.37154e-08
-6.24027e-09
-4.18634e-08
-4.73347e-08
-7.16341e-09
-5.31634e-09
-4.01915e-09
-1.39825e-09
-2.7451e-09
-6.28373e-09
-1.1979e-08
-1.58648e-08
-1.35202e-08
-1.5224e-08
-2.08927e-08
-1.86674e-08
-1.18461e-08
-8.50879e-09
-1.10483e-08
-1.62233e-08
-2.1601e-08
-3.06317e-08
-4.36067e-08
-5.78542e-08
-7.08729e-08
-8.02512e-08
-1.38609e-07
-1.46481e-07
-7.18391e-08
-4.65266e-08
-4.15121e-08
-4.983e-08
-6.1308e-08
-7.09374e-08
-8.15978e-08
-9.15977e-08
-9.60289e-08
-9.53976e-08
-8.80693e-08
-7.21342e-08
-5.06915e-08
-2.39973e-08
-3.6261e-08
-7.26944e-08
-2.9849e-08
-1.41089e-08
-6.74828e-09
-2.17553e-09
-5.08936e-10
-2.63026e-09
-3.83088e-09
-5.89826e-09
-7.22325e-09
-5.78114e-09
-1.3083e-08
-1.39087e-08
-6.82671e-09
-1.46802e-09
-1.73397e-09
-6.67638e-09
-8.29607e-09
-7.68542e-09
-8.69787e-09
-9.42902e-09
-1.76588e-08
-1.80853e-08
-4.43533e-08
-8.59997e-08
-3.9873e-08
-2.21049e-08
-1.76185e-08
-8.60335e-09
-3.02885e-09
-1.40129e-09
-1.12313e-09
-3.04634e-09
-5.90786e-09
-7.68553e-09
-9.49059e-09
-8.81669e-09
-9.13059e-09
-9.23128e-09
-1.28374e-08
-5.5441e-08
-5.91275e-08
-3.51871e-08
-9.88629e-09
-5.50548e-09
-1.67839e-09
-4.95669e-09
-6.93132e-09
-5.50062e-09
-6.01771e-09
-6.55638e-09
-8.15493e-09
-1.8104e-08
-1.31665e-08
-4.78028e-09
-3.46025e-09
-6.27609e-09
-5.39848e-09
-6.04492e-09
-6.44906e-09
-5.59707e-09
-1.28732e-08
-2.10309e-08
-1.81752e-08
-5.51083e-08
-3.99698e-08
-1.45369e-08
-1.37731e-08
-8.16835e-09
-2.39495e-09
-6.1393e-09
-1.34342e-08
-1.64028e-08
-1.63633e-08
-1.37904e-08
-8.41048e-09
-3.90467e-09
-3.77078e-09
-1.56511e-08
-8.82596e-09
-1.35594e-08
-5.46442e-08
-4.98633e-08
-2.34283e-08
-7.29388e-09
-1.84138e-09
-5.24136e-09
-1.04634e-08
-1.23991e-08
-8.72971e-09
-1.15944e-08
-1.22333e-08
-1.55677e-08
-2.33474e-08
-1.43197e-08
-6.19815e-09
-2.6308e-09
-4.93733e-09
-1.10588e-08
-7.75217e-09
-4.53056e-09
-8.37151e-09
-1.96409e-08
-1.8351e-08
-3.58289e-08
-4.04435e-08
-1.78472e-08
-1.67358e-08
-9.43771e-09
-2.08475e-09
-1.56889e-09
-6.05008e-09
-1.35536e-08
-2.27065e-08
-3.12713e-08
-2.95875e-08
-1.50601e-08
-4.54223e-09
-7.81198e-09
-2.14227e-08
-9.89193e-09
-2.25915e-08
-3.21302e-08
-4.42094e-08
-1.72642e-08
-2.48983e-09
-2.94338e-09
-1.07979e-08
-1.84816e-08
-2.04906e-08
-1.24516e-08
-2.21657e-08
-1.97651e-08
-2.36489e-08
-2.51158e-08
-9.54977e-09
-8.96663e-10
-1.01554e-08
-1.51106e-08
-7.53678e-09
-4.09114e-09
-6.1633e-09
-1.54955e-08
-2.00082e-08
-2.31486e-08
-3.31124e-08
-2.46922e-08
-1.75004e-08
-6.93459e-09
-1.96171e-09
-9.122e-10
-1.06131e-09
-2.35666e-09
-6.94753e-09
-1.77923e-08
-3.11748e-08
-2.99289e-08
-1.29202e-08
-3.78292e-09
-1.24126e-08
-2.15903e-08
-1.25925e-08
-1.52401e-08
-4.30928e-08
-3.66453e-08
-8.42024e-09
-2.66299e-09
-7.77287e-09
-1.11015e-08
-1.76752e-08
-1.94238e-08
-1.31611e-08
-3.22445e-08
-2.73106e-08
-2.43709e-08
-1.08249e-08
-1.4596e-09
-1.14379e-08
-1.19457e-08
-5.85273e-09
-3.93041e-09
-4.64593e-09
-9.33436e-09
-1.81841e-08
-1.36667e-08
-2.32863e-08
-2.67122e-08
-1.35479e-08
-3.75002e-09
-1.52978e-09
-7.56781e-10
-8.53682e-10
-9.54825e-10
-1.34574e-09
-4.29802e-09
-1.2101e-08
-2.11278e-08
-1.81475e-08
-7.06334e-09
-4.53005e-09
-1.63721e-08
-2.26258e-08
-2.01576e-08
-2.10567e-08
-3.81212e-08
-1.62631e-08
-5.84348e-09
-4.33942e-09
-3.41803e-09
-6.8978e-09
-1.45336e-08
-1.3507e-08
-1.4568e-08
-4.12083e-08
-3.05408e-08
-1.27804e-08
-4.67994e-09
-7.21403e-09
-6.9904e-09
-5.15932e-09
-3.4189e-09
-3.93699e-09
-4.42708e-09
-1.04932e-08
-6.60293e-09
-1.44395e-08
-2.2783e-08
-7.11678e-09
-2.08784e-09
-1.2944e-09
-4.63893e-10
-1.15479e-09
-1.63806e-09
-1.1876e-09
-1.39494e-09
-4.09944e-09
-8.7135e-09
-1.08062e-08
-7.00302e-09
-3.24625e-09
-7.11785e-09
-2.22779e-08
-2.80591e-08
-1.17487e-08
-2.16734e-08
-2.33423e-08
-7.41189e-09
-1.79995e-09
-3.22427e-09
-5.46884e-09
-6.6737e-09
-1.08373e-08
-7.54883e-09
-2.22555e-08
-4.40418e-08
-2.15709e-08
-6.78745e-09
-4.88808e-09
-5.40978e-09
-2.91118e-09
-2.71631e-09
-4.67344e-09
-4.34035e-09
-3.65371e-09
-2.34788e-09
-6.82637e-09
-1.02616e-08
-4.21326e-09
-3.55135e-09
-1.03226e-09
-3.90341e-10
-1.49986e-09
-2.55265e-09
-2.34967e-09
-1.10745e-09
-2.34196e-09
-5.51131e-09
-6.48429e-09
-4.31601e-09
-2.19595e-09
-2.58057e-09
-1.27315e-08
-2.46686e-08
-2.23138e-08
-1.22506e-08
-2.12319e-08
-8.99308e-09
-3.52145e-09
-5.01056e-09
-6.11291e-09
-6.72317e-09
-4.7607e-09
-5.28316e-09
-7.75481e-09
-2.87598e-08
-2.36588e-08
-5.14867e-09
-2.15907e-09
-1.85289e-09
-8.57437e-10
-2.53473e-09
-6.48266e-09
-7.81167e-09
-4.80675e-09
-1.93162e-09
-1.83753e-09
-5.78285e-09
-6.55929e-09
-2.26631e-09
-5.81761e-10
-8.76603e-10
-1.45661e-09
-2.83129e-09
-4.4481e-09
-3.02755e-09
-1.70303e-09
-5.28732e-09
-6.84978e-09
-3.95122e-09
-1.55554e-09
-1.57826e-09
-3.94593e-09
-9.70736e-09
-2.49458e-08
-1.51935e-08
-1.06603e-08
-1.02627e-08
-9.62351e-09
-6.13136e-09
-3.27319e-09
-5.07512e-09
-5.6552e-09
-1.8172e-09
-3.83117e-09
-1.57332e-08
-1.99323e-08
-5.84759e-09
-8.67873e-10
-8.85899e-10
-1.36221e-09
-2.57301e-09
-8.65289e-09
-1.26718e-08
-9.18802e-09
-3.34086e-09
-3.3782e-09
-6.43681e-09
-4.41945e-09
-2.0671e-09
-1.35112e-09
-1.24511e-09
-9.99045e-10
-2.39713e-09
-6.56922e-09
-8.00474e-09
-3.09289e-09
-4.10195e-09
-8.46346e-09
-6.42876e-09
-1.86722e-09
-8.65832e-10
-1.7222e-09
-2.13112e-09
-7.91993e-09
-8.70458e-09
-3.08956e-09
-6.9919e-09
-9.01541e-09
-4.46232e-09
-5.21026e-10
-2.10927e-09
-6.07028e-09
-4.09003e-09
-1.07308e-09
-9.95844e-09
-1.76425e-08
-1.03702e-08
-4.07428e-09
-2.82816e-09
-2.24213e-09
-2.83234e-09
-1.01592e-08
-1.55286e-08
-1.0662e-08
-4.0103e-09
-2.33824e-09
-5.07549e-09
-4.33879e-09
-3.92131e-09
-4.07459e-09
-2.43103e-09
-1.58504e-09
-3.12881e-09
-6.94198e-09
-1.0977e-08
-7.81293e-09
-3.07479e-09
-7.21278e-09
-8.1795e-09
-4.07448e-09
-9.20138e-10
-1.04142e-09
-1.21428e-09
-9.72516e-10
-1.24717e-09
-2.06733e-09
-2.24353e-09
-2.09769e-09
-1.9193e-09
-1.04547e-09
-1.18786e-09
-4.7298e-09
-6.00681e-09
-2.13242e-09
-5.13915e-09
-1.41012e-08
-1.37434e-08
-7.54721e-09
-3.52256e-09
-1.94506e-09
-2.7233e-09
-7.84913e-09
-1.42354e-08
-9.59079e-09
-2.88916e-09
-2.22782e-09
-4.80682e-09
-8.87898e-09
-8.92296e-09
-4.11097e-09
-2.76188e-09
-3.49931e-09
-3.43088e-09
-4.835e-09
-7.74574e-09
-9.29153e-09
-4.60009e-09
-3.9582e-09
-7.05916e-09
-5.13493e-09
-2.38348e-09
-9.471e-10
-4.70816e-10
-9.45466e-10
-1.34041e-09
-1.00687e-09
-3.64836e-10
-4.06472e-10
-8.14395e-10
-7.54356e-10
-5.89702e-10
-3.24107e-09
-5.41066e-09
-2.60673e-09
-3.33679e-09
-1.00621e-08
-1.13203e-08
-5.89625e-09
-1.97111e-09
-9.3379e-10
-1.3845e-09
-3.42945e-09
-8.07652e-09
-9.00071e-09
-3.02989e-09
-2.61635e-09
-9.04714e-09
-1.04402e-08
-4.40707e-09
-4.42973e-09
-8.9542e-09
-7.92738e-09
-2.62976e-09
-1.3283e-09
-4.83956e-09
-7.74669e-09
-7.00266e-09
-2.75314e-09
-4.04452e-09
-5.37082e-09
-3.70748e-09
-1.63979e-09
-9.26353e-10
-4.12587e-10
-9.34518e-10
-7.17085e-10
-2.4249e-10
-2.31147e-10
-6.25661e-10
-8.00168e-10
-5.56306e-10
-2.55861e-09
-5.51292e-09
-2.54033e-09
-2.49835e-09
-8.34716e-09
-8.99121e-09
-4.03238e-09
-6.70573e-10
-4.40696e-10
-1.27017e-09
-1.76652e-09
-3.29034e-09
-5.64637e-09
-6.05081e-09
-6.3843e-09
-5.79987e-09
-2.39337e-09
-5.31594e-09
-1.2178e-08
-9.88575e-09
-3.90435e-09
-3.52144e-09
-2.75399e-09
-2.32618e-09
-5.62634e-09
-8.18134e-09
-5.42603e-09
-2.08455e-09
-3.70442e-09
-4.83569e-09
-3.30799e-09
-2.81275e-09
-1.0171e-09
-8.53018e-10
-1.34627e-09
-8.09456e-10
-4.85788e-10
-1.0109e-09
-1.05588e-09
-1.13092e-09
-2.16129e-09
-4.64603e-09
-3.52033e-09
-2.52434e-09
-7.45174e-09
-7.54443e-09
-2.9164e-09
-1.46674e-09
-2.03775e-09
-1.71978e-09
-1.4414e-09
-2.77575e-09
-4.66818e-09
-4.6124e-09
-2.19045e-09
-6.68391e-10
-6.01299e-09
-1.32817e-08
-9.05486e-09
-1.19634e-09
-2.61457e-09
-4.71766e-09
-3.04156e-09
-3.14887e-09
-4.25587e-09
-6.87982e-09
-8.26409e-09
-4.709e-09
-2.12061e-09
-3.24139e-09
-4.14325e-09
-2.48894e-09
-2.64933e-09
-2.9439e-09
-2.01545e-09
-6.91457e-10
-1.45336e-09
-2.07226e-09
-1.07777e-09
-1.34431e-09
-2.92528e-09
-2.67899e-09
-2.09401e-09
-2.96857e-09
-4.21477e-09
-3.24235e-09
-2.97689e-09
-2.87077e-09
-1.58496e-09
-7.23914e-10
-9.51819e-10
-1.45684e-09
-1.76095e-09
-1.12689e-09
-1.23467e-09
-5.66773e-09
-9.27916e-09
-4.72789e-09
-1.04973e-09
-4.71981e-09
-7.54419e-09
-7.91273e-09
-5.23513e-09
-1.58272e-09
-4.89631e-09
-5.50387e-09
-5.59655e-09
-5.19195e-09
-3.04846e-09
-1.82102e-09
-2.09595e-09
-6.60867e-10
-1.50757e-09
-2.21274e-09
-1.26885e-09
-3.55355e-10
-5.60676e-10
-9.39957e-10
-9.04725e-10
-8.86878e-10
-2.04381e-09
-2.45781e-09
-7.01673e-10
-7.66627e-10
-1.77101e-09
-2.11191e-09
-1.74907e-09
-7.32057e-10
-1.77664e-10
-2.42443e-10
-2.45964e-10
-1.18774e-10
-6.30083e-10
-1.67954e-09
-3.13174e-09
-3.47005e-09
-1.31833e-09
-9.25556e-10
-2.93025e-09
-2.89618e-09
-1.77355e-09
-4.57613e-09
-1.14547e-08
-8.06073e-09
-1.2854e-09
-4.0184e-09
-4.35463e-09
-2.86813e-09
-1.53921e-09
-9.11232e-10
-6.90647e-10
-9.61656e-10
-8.24582e-10
-1.01207e-09
-7.90338e-10
-5.82823e-10
-7.29393e-10
-8.91614e-10
-1.24938e-09
-1.50153e-09
-1.0206e-09
-8.78863e-10
-1.01117e-09
-1.08562e-09
-1.89154e-09
-2.20029e-09
-1.6368e-09
-1.10425e-09
-5.58835e-10
-1.34991e-10
-2.4308e-10
-4.06672e-10
-6.36234e-10
-1.1371e-09
-1.25099e-09
-1.12118e-09
-1.53966e-09
-1.96401e-09
-1.59492e-09
-8.41785e-10
-2.59806e-10
-1.61517e-09
-7.54528e-09
-1.23842e-08
-6.31192e-09
-1.13625e-09
-3.32527e-09
-3.71631e-09
-2.07499e-09
-1.28812e-09
-1.29083e-09
-1.13362e-09
-8.25478e-10
-1.18177e-09
-1.47176e-09
-1.35004e-09
-1.22187e-09
-1.35566e-09
-1.7461e-09
-1.63166e-09
-7.48327e-10
-2.49293e-10
-8.32797e-10
-1.06397e-09
-1.04897e-09
-1.26684e-09
-1.20058e-09
-1.23209e-09
-9.22914e-10
-2.69262e-10
-2.4915e-10
-6.17773e-10
-5.82283e-10
-5.66101e-10
-1.08519e-09
-1.8044e-09
-2.19174e-09
-1.74032e-09
-7.41523e-10
-2.42571e-10
-7.5251e-10
-2.10313e-09
-4.18669e-09
-5.9609e-09
-4.70257e-09
-1.72525e-09
-8.28273e-10
-1.58043e-09
-1.79884e-09
-1.42533e-09
-1.36771e-09
-1.78855e-09
-1.30464e-09
-6.19129e-10
-9.2731e-10
-1.94042e-09
-2.33837e-09
-1.74366e-09
-1.26087e-09
-1.04823e-09
-9.78196e-10
-1.8803e-09
-2.32365e-09
-1.28457e-09
-8.82163e-10
-1.35891e-09
-1.2326e-09
-1.31908e-09
-1.60207e-09
-1.2038e-09
-7.41263e-10
-9.8076e-10
-1.3137e-09
-9.92653e-10
-4.84938e-10
-4.65338e-10
-7.36778e-10
-8.80583e-10
-8.36557e-10
-6.17957e-10
-6.68127e-10
-1.14073e-09
-1.35028e-09
-1.23373e-09
-9.99607e-10
-4.53609e-10
-4.36194e-10
-6.51296e-10
-6.49829e-10
-7.9541e-10
-1.36714e-09
-1.22485e-09
-1.17079e-09
-6.54457e-10
-1.4413e-10
-3.17111e-10
-9.62499e-10
-1.12433e-09
-7.25876e-10
-7.29815e-10
-8.70457e-10
-8.8566e-10
-1.32145e-09
-1.18512e-09
-5.21683e-10
-3.03732e-10
-2.42106e-10
-3.09709e-10
-7.80522e-10
-8.96844e-10
-4.56183e-10
-3.12801e-10
-6.20228e-10
-8.05005e-10
-9.79361e-10
-1.24585e-09
-1.14947e-09
-7.25877e-10
-3.3188e-10
-7.21735e-11
-1.78853e-10
-8.424e-10
-1.17144e-09
-4.79319e-10
-3.94769e-10
-8.55461e-10
-6.90438e-10
-2.35929e-10
-5.88584e-11
-3.53621e-10
-8.65404e-10
-1.10971e-09
-1.18008e-09
-9.49647e-10
-1.10558e-09
-1.23288e-09
-7.95895e-10
-3.99495e-10
-4.80784e-10
-8.80667e-10
-1.57585e-09
-2.09214e-09
-1.96878e-09
-1.58669e-09
-1.0913e-09
-5.36111e-10
-3.56014e-10
-8.78569e-10
-1.78363e-09
-2.18364e-09
-1.63013e-09
-7.43791e-10
-4.68636e-10
-9.5012e-10
-1.19159e-09
-6.91911e-10
-1.3928e-10
-1.47462e-10
-3.90086e-10
-3.31328e-10
-1.8972e-10
-3.44975e-10
-6.9808e-10
-7.65415e-10
-6.29685e-10
-8.05352e-10
-1.00881e-09
-8.4978e-10
-4.44756e-10
-2.29399e-10
-5.60536e-10
-1.47466e-08
-8.80664e-09
-1.51021e-08
-4.29649e-08
-9.33118e-08
-1.25017e-07
-1.2281e-07
-1.01077e-07
-8.52516e-08
-9.44701e-08
-1.45981e-07
-2.47821e-07
-3.85045e-07
-5.24888e-07
-6.46446e-07
-7.48971e-07
-8.50329e-07
-9.40398e-07
-9.37823e-07
-6.96545e-07
-3.20369e-07
-1.09114e-07
-3.11362e-08
-1.06398e-07
-1.93867e-07
-1.98156e-07
-1.68035e-07
-1.83425e-07
-3.13821e-07
-5.75923e-07
-8.43532e-07
-8.86032e-07
-6.19033e-07
-2.53617e-07
-6.07348e-08
-7.19951e-08
-9.45196e-08
-3.73703e-08
-4.48169e-09
-1.47951e-08
-8.50192e-09
-7.89504e-09
-4.60101e-09
-8.52228e-09
-1.54371e-08
-1.79604e-08
-1.80147e-08
-2.0743e-08
-2.36305e-08
-2.00668e-08
-1.30494e-08
-1.13644e-08
-1.60292e-08
-2.3334e-08
-3.03367e-08
-3.36974e-08
-3.49154e-08
-4.27687e-08
-6.52491e-08
-9.28707e-08
-7.44588e-08
-2.12141e-08
-2.09683e-08
-1.27457e-08
-5.23296e-08
-7.63929e-08
-5.88509e-08
-3.46601e-08
-2.48108e-08
-2.93762e-08
-4.40177e-08
-6.43418e-08
-8.06225e-08
-7.91842e-08
-5.35537e-08
-1.34471e-08
-1.14866e-08
-3.92068e-08
-2.43793e-08
-7.97947e-09
-9.27552e-09
-7.41238e-09
-4.94066e-09
-6.24726e-09
-7.8485e-09
-6.88335e-09
-5.12183e-09
-4.40047e-09
-5.36756e-09
-8.68425e-09
-1.54215e-08
-2.38465e-08
-3.08948e-08
-3.92575e-08
-5.57123e-08
-8.53157e-08
-1.26187e-07
-1.58636e-07
-1.56449e-07
-1.10541e-07
-5.69275e-08
-5.0181e-08
-1.05544e-07
-8.63267e-08
-2.44557e-08
-1.27817e-08
-1.44604e-08
-3.46336e-08
-7.17641e-08
-1.08549e-07
-1.27682e-07
-1.23217e-07
-9.77757e-08
-6.60024e-08
-4.03293e-08
-1.79894e-08
-1.1267e-08
-3.88847e-08
-5.95593e-08
-2.53564e-08
-1.61543e-08
-8.23464e-09
-5.791e-09
-6.98325e-09
-8.22686e-09
-8.039e-09
-6.48053e-09
-5.56097e-09
-5.98082e-09
-8.76938e-09
-1.42159e-08
-1.94843e-08
-2.10729e-08
-2.14852e-08
-2.7393e-08
-4.47033e-08
-7.36378e-08
-9.61956e-08
-8.89623e-08
-6.23401e-08
-4.41002e-08
-5.19288e-08
-1.08218e-07
-1.2081e-07
-4.33544e-08
-1.8798e-08
-1.86231e-08
-3.72464e-08
-6.48497e-08
-8.25214e-08
-8.2924e-08
-7.31771e-08
-6.26373e-08
-5.70596e-08
-5.83653e-08
-5.812e-08
-4.69254e-08
-5.18269e-08
-7.88618e-08
-5.83988e-08
-3.38732e-08
-1.0896e-08
-4.5188e-09
-1.78166e-09
-1.75056e-09
-2.23339e-09
-1.24844e-09
-4.60008e-10
-1.66063e-09
-2.19614e-09
-2.42644e-09
-3.18466e-09
-3.34556e-09
-3.47071e-09
-5.21686e-09
-1.05893e-08
-1.90553e-08
-2.38566e-08
-1.53591e-08
-7.56508e-09
-1.35028e-08
-1.47787e-08
-2.62835e-08
-7.19577e-08
-3.20611e-08
-1.15795e-08
-7.59254e-09
-2.63082e-09
-4.18443e-09
-8.80272e-09
-9.25917e-09
-5.16886e-09
-2.07329e-09
-2.25421e-09
-4.35093e-09
-6.78503e-09
-9.05127e-09
-1.87984e-08
-4.76342e-08
-8.10034e-08
-6.78885e-08
-1.93731e-08
-6.85197e-09
-1.46636e-09
-4.33846e-10
-1.59442e-09
-1.63127e-09
-7.09154e-10
-2.6315e-09
-6.84459e-09
-6.66577e-09
-4.16267e-09
-2.17293e-09
-1.95458e-09
-4.49051e-09
-9.34668e-09
-1.08649e-08
-7.83277e-09
-5.15086e-09
-2.74686e-09
-1.03391e-08
-2.488e-08
-1.29516e-08
-3.46559e-08
-3.094e-08
-8.16762e-09
-7.00546e-09
-5.20639e-09
-2.44954e-09
-1.27098e-09
-1.41963e-09
-2.59555e-09
-6.40441e-09
-1.13287e-08
-1.32477e-08
-1.42108e-08
-1.02281e-08
-3.45967e-09
-9.59161e-09
-6.1902e-08
-8.44746e-08
-4.24024e-08
-1.02202e-08
-2.94967e-09
-5.92143e-10
-1.43535e-09
-2.13593e-09
-1.85535e-09
-1.67727e-09
-2.60249e-09
-6.26814e-09
-7.07934e-09
-3.99273e-09
-2.14206e-09
-5.68687e-09
-1.11331e-08
-7.68044e-09