/*--------------------------------*- C++ -*----------------------------------*\
| =========                 |                                                 |
| \\      /  F ield         | OpenFOAM: The Open Source CFD Toolbox           |
|  \\    /   O peration     | Version:  5.0                                   |
|   \\  /    A nd           | Web:      www.OpenFOAM.org                      |
|    \\/     M anipulation  |                                                 |
\*---------------------------------------------------------------------------*/
FoamFile
{
    version     2.0;
    format      ascii;
    class       volScalarField;
    location    "50.4676134421789371";
    object      viscDiss;
}
// * * * * * * * * * * * * * * * * * * * * * * * * * * * * * * * * * * * * * //

dimensions      [0 2 -3 0 0 0 0];

internalField   nonuniform List<scalar> 
60000
(
-8.83778e-08
-3.57093e-08
-3.93257e-08
-5.12805e-08
-4.03525e-08
-4.0975e-08
-4.03962e-08
-2.85382e-08
-7.30865e-08
-1.6703e-07
-1.84771e-07
-1.04818e-07
-3.12084e-08
-1.12771e-08
-2.89104e-08
-7.15559e-08
-1.18511e-07
-1.65983e-07
-2.45352e-07
-3.37712e-07
-4.54918e-07
-7.48668e-07
-1.09601e-06
-1.37469e-06
-1.75792e-06
-2.21671e-06
-2.35518e-06
-1.82231e-06
-9.19464e-07
-3.17161e-07
-1.94325e-07
-3.53187e-07
-5.65079e-07
-5.82725e-07
-3.42927e-07
-1.21623e-07
-1.69005e-08
-4.15706e-08
-1.61477e-07
-1.64004e-07
-6.83934e-08
-3.54347e-08
-1.40565e-08
-5.09971e-09
-4.43458e-09
-1.11543e-08
-8.98297e-09
-2.15189e-09
-1.47363e-08
-5.93276e-08
-8.91656e-08
-6.93244e-08
-2.29216e-08
-3.85622e-09
-1.33274e-08
-3.83975e-08
-6.53791e-08
-5.78491e-08
-2.61176e-08
-1.31503e-08
-2.44761e-08
-6.64439e-08
-1.39439e-07
-1.52983e-07
-1.51578e-07
-1.67728e-07
-1.80123e-07
-1.73091e-07
-1.2675e-07
-5.11e-08
-1.52002e-08
-1.8007e-08
-2.9016e-08
-6.13627e-08
-8.78906e-08
-4.68472e-08
-1.06891e-08
-1.29203e-08
-2.648e-08
-6.9948e-08
-1.02711e-08
-1.26945e-08
-7.25957e-09
-4.8766e-09
-1.52262e-09
-1.25877e-08
-2.31969e-08
-2.12556e-08
-1.71714e-08
-9.63751e-09
-9.18669e-09
-8.98556e-09
-5.3865e-09
-9.70759e-09
-1.60018e-08
-1.07527e-08
-9.76104e-09
-1.2797e-08
-4.44396e-08
-1.09819e-07
-1.68612e-07
-1.69944e-07
-1.39302e-07
-1.25768e-07
-1.5675e-07
-2.28223e-07
-2.82489e-07
-2.6476e-07
-1.88449e-07
-1.23194e-07
-1.26923e-07
-1.83567e-07
-1.9669e-07
-1.36138e-07
-4.76925e-08
-1.06609e-08
-1.9518e-08
-7.05403e-08
-5.02105e-08
-7.22078e-09
-9.7399e-09
-1.37982e-08
-1.04352e-08
-6.67599e-09
-7.76259e-09
-1.80096e-08
-3.61299e-08
-4.64995e-08
-4.92214e-08
-3.6422e-08
-1.84426e-08
-1.53519e-08
-1.56795e-08
-2.4742e-08
-3.48359e-08
-2.42716e-08
-1.26338e-08
-1.51837e-08
-5.40439e-08
-1.36737e-07
-1.80424e-07
-1.48116e-07
-8.61423e-08
-7.68024e-08
-1.02261e-07
-1.51698e-07
-1.857e-07
-1.69829e-07
-1.27439e-07
-1.03909e-07
-1.16054e-07
-1.63263e-07
-2.07375e-07
-2.05431e-07
-1.3756e-07
-6.50078e-08
-5.08591e-08
-8.65245e-08
-1.08289e-07
-4.56084e-08
-5.94542e-09
-8.45661e-09
-1.49685e-08
-5.64763e-09
-4.58072e-09
-6.333e-09
-1.33291e-08
-2.90768e-08
-4.73863e-08
-4.92074e-08
-2.05508e-08
-1.37799e-08
-1.87871e-08
-7.56311e-09
-8.03545e-09
-1.71139e-08
-1.82675e-08
-1.24242e-08
-9.35444e-09
-4.96506e-08
-1.27925e-07
-1.21437e-07
-4.3178e-08
-2.94423e-08
-3.85832e-08
-4.133e-08
-3.0748e-08
-1.15095e-08
-2.65745e-09
-1.17005e-08
-1.21201e-08
-1.1061e-08
-3.48044e-08
-6.99894e-08
-7.33503e-08
-2.88039e-08
-1.52058e-08
-2.79363e-08
-5.58161e-08
-5.08345e-08
-2.63734e-08
-9.87403e-10
-1.26916e-08
-1.43683e-08
-1.04347e-08
-1.0028e-08
-5.05832e-09
-3.5964e-09
-2.17412e-08
-5.32456e-08
-5.18895e-08
-1.48572e-08
-1.56022e-08
-2.07729e-08
-1.57015e-08
-3.06538e-08
-3.6636e-08
-2.86257e-08
-2.76608e-08
-1.05814e-08
-7.50729e-08
-1.35158e-07
-5.98476e-08
-1.78327e-08
-3.20462e-08
-2.85079e-08
-9.84768e-09
-2.42241e-09
-4.23153e-09
-2.83849e-08
-7.1771e-08
-7.0967e-08
-3.00648e-08
-1.18612e-08
-3.20859e-08
-2.96119e-08
-6.72537e-09
-2.36463e-08
-2.94071e-08
-4.07415e-08
-3.45234e-08
-1.84041e-08
-4.61511e-10
-5.41847e-09
-1.45247e-08
-2.62365e-08
-2.47426e-08
-1.02491e-08
-4.4426e-10
-2.41395e-08
-7.27302e-08
-5.97038e-08
-1.53528e-08
-1.60495e-08
-3.22206e-08
-4.56654e-08
-3.11623e-08
-2.43046e-08
-4.0537e-08
-3.45045e-08
-1.94046e-08
-1.23808e-07
-1.06638e-07
-3.86533e-08
-3.79108e-08
-1.75591e-08
-5.48016e-09
-3.16539e-09
-1.76027e-09
-5.28175e-09
-2.93648e-08
-7.64264e-08
-8.86062e-08
-4.64381e-08
-1.00274e-08
-2.00634e-08
-1.85876e-08
-1.23703e-08
-2.52984e-08
-2.71618e-08
-2.37228e-08
-2.81817e-08
-1.5198e-08
-4.08803e-09
-4.64022e-09
-2.08449e-08
-3.81292e-08
-3.75312e-08
-2.09303e-08
-1.39466e-09
-3.46311e-08
-8.66929e-08
-4.86344e-08
-2.32939e-08
-3.65399e-08
-2.95507e-08
-1.2942e-08
-1.74045e-08
-2.79796e-08
-6.24441e-08
-1.88843e-08
-5.80977e-08
-1.3637e-07
-8.52881e-08
-3.72942e-08
-1.03358e-08
-7.22479e-09
-3.85672e-09
-1.09586e-09
-2.56026e-09
-6.6072e-09
-2.23496e-08
-5.865e-08
-7.9454e-08
-4.87149e-08
-9.7801e-09
-1.21368e-08
-1.56029e-08
-1.53372e-08
-2.03808e-08
-1.59233e-08
-1.95354e-08
-1.77157e-08
-9.53068e-09
-6.68054e-09
-1.02865e-08
-1.66528e-08
-2.45553e-08
-3.90124e-08
-3.38604e-08
-2.51894e-09
-4.63345e-08
-7.56413e-08
-4.40686e-08
-2.61706e-08
-5.14046e-09
-1.16802e-08
-1.5298e-08
-1.24905e-08
-4.81295e-08
-6.77258e-08
-8.79978e-09
-9.69806e-08
-1.03718e-07
-3.24951e-08
-8.47046e-09
-8.06376e-09
-3.12598e-09
-6.06479e-10
-2.22744e-09
-4.97042e-09
-8.08261e-09
-1.63793e-08
-3.60253e-08
-5.05944e-08
-3.29905e-08
-8.30081e-09
-9.19096e-09
-1.31021e-08
-1.2644e-08
-1.05085e-08
-1.28465e-08
-7.34413e-09
-5.41002e-09
-9.73531e-09
-1.20554e-08
-1.00255e-08
-3.42917e-09
-1.00274e-08
-4.32972e-08
-3.90479e-08
-2.56398e-09
-5.91165e-08
-6.3285e-08
-2.0987e-08
-5.32166e-09
-1.26549e-08
-9.49652e-09
-6.1335e-09
-1.86669e-08
-6.74901e-08
-2.44972e-08
-2.68113e-08
-7.4102e-08
-2.70415e-08
-1.1832e-08
-8.09677e-09
-1.91494e-09
-1.55665e-10
-1.78801e-09
-4.08604e-09
-6.53387e-09
-9.6818e-09
-1.32526e-08
-1.72441e-08
-1.89212e-08
-1.26428e-08
-5.43978e-09
-6.53233e-09
-8.14114e-09
-9.06536e-09
-1.21293e-08
-5.07905e-09
-5.48179e-09
-1.21996e-08
-1.46567e-08
-1.18145e-08
-6.66707e-09
-5.8378e-10
-1.20268e-08
-4.91145e-08
-2.44628e-08
-1.29182e-08
-6.81322e-08
-4.15481e-08
-1.07473e-08
-4.87571e-09
-5.31647e-09
-5.44711e-09
-1.04685e-08
-2.78605e-08
-3.50012e-08
-1.54682e-09
-2.2166e-08
-2.23e-08
-1.67179e-08
-7.06582e-09
-1.66599e-09
-6.43359e-10
-1.94535e-09
-3.45471e-09
-4.55538e-09
-8.10914e-09
-1.19438e-08
-1.13842e-08
-7.17919e-09
-3.86024e-09
-3.61481e-09
-4.37476e-09
-5.98291e-09
-7.47018e-09
-1.28335e-08
-6.77142e-09
-4.87678e-09
-1.36722e-08
-1.52833e-08
-9.4384e-09
-6.67062e-09
-3.65653e-09
-8.74381e-10
-1.94936e-08
-3.69868e-08
-3.10641e-09
-3.72898e-08
-5.40112e-08
-1.74219e-08
-2.18407e-09
-4.35383e-09
-8.84716e-09
-1.58524e-08
-1.99835e-08
-1.88068e-08
-8.60747e-09
-9.24932e-09
-2.09715e-08
-1.62055e-08
-7.52834e-09
-2.92866e-09
-1.44642e-09
-2.54404e-09
-4.24468e-09
-3.13067e-09
-4.24232e-09
-1.25673e-08
-1.55048e-08
-8.83932e-09
-2.54238e-09
-1.12496e-09
-1.84327e-09
-3.2222e-09
-3.49964e-09
-6.20292e-09
-5.5782e-09
-8.09822e-09
-1.46882e-08
-1.10333e-08
-5.05302e-09
-5.51769e-09
-4.63144e-09
-6.91708e-10
-6.15234e-09
-2.20193e-08
-9.15935e-09
-1.4072e-08
-4.69474e-08
-2.76401e-08
-5.72291e-09
-3.80758e-09
-1.24387e-08
-1.98755e-08
-2.34717e-08
-1.48978e-08
-5.91178e-09
-1.05299e-08
-1.65831e-08
-1.53044e-08
-7.45705e-09
-2.56337e-09
-1.09315e-09
-2.33295e-09
-5.86949e-09
-6.72861e-09
-1.32986e-09
-7.01873e-09
-2.00395e-08
-1.61906e-08
-4.99726e-09
-1.10244e-09
-1.47133e-09
-1.56134e-09
-2.19136e-09
-1.26694e-09
-3.666e-09
-1.29558e-08
-1.28443e-08
-4.80276e-09
-1.33058e-09
-4.0934e-09
-6.04354e-09
-3.20853e-09
-4.77775e-09
-1.33558e-08
-9.21606e-09
-8.64289e-09
-3.57718e-08
-2.94083e-08
-6.35887e-09
-1.79666e-09
-8.82938e-09
-1.3546e-08
-1.43178e-08
-1.27264e-08
-3.27105e-09
-6.10448e-09
-1.55004e-08
-9.91689e-09
-4.5728e-09
-1.92383e-09
-9.13771e-10
-2.05963e-09
-6.07709e-09
-1.21365e-08
-8.4045e-09
-5.13349e-10
-1.37434e-08
-2.22885e-08
-1.1091e-08
-2.16125e-09
-1.20172e-09
-1.6794e-09
-1.43321e-09
-1.28528e-09
-4.21482e-09
-9.11611e-09
-6.30363e-09
-1.89393e-09
-1.53816e-09
-2.44092e-09
-3.32007e-09
-3.38936e-09
-5.88732e-09
-1.10831e-08
-8.74249e-09
-6.00784e-09
-2.19008e-08
-2.02054e-08
-4.82863e-09
-2.50906e-09
-2.73911e-09
-5.53459e-09
-9.11966e-09
-7.42229e-09
-4.02754e-09
-5.3114e-09
-7.56057e-09
-7.55806e-09
-4.28581e-09
-1.96624e-09
-3.02238e-09
-3.91833e-09
-5.01507e-09
-1.05592e-08
-1.50862e-08
-5.9915e-09
-3.31188e-09
-1.77262e-08
-1.65577e-08
-5.55758e-09
-1.35369e-09
-1.69539e-09
-1.34287e-09
-7.28003e-10
-2.64254e-09
-4.16603e-09
-2.54713e-09
-1.05865e-09
-1.8664e-09
-3.07332e-09
-2.0995e-09
-1.48825e-09
-4.28737e-09
-9.89417e-09
-6.66773e-09
-8.80844e-10
-8.74394e-09
-1.18155e-08
-4.88644e-09
-1.85827e-09
-1.66707e-09
-2.25538e-09
-4.95153e-09
-7.42888e-09
-5.73637e-09
-5.01104e-09
-1.13561e-08
-1.0933e-08
-5.79328e-09
-7.59455e-09
-1.09446e-08
-8.78219e-09
-4.9192e-09
-5.6144e-09
-1.16132e-08
-1.21906e-08
-3.0248e-09
-6.27826e-09
-1.48591e-08
-9.77517e-09
-3.31072e-09
-1.88723e-09
-2.11713e-09
-1.68574e-09
-2.46811e-09
-3.61492e-09
-2.85215e-09
-1.88972e-09
-2.68504e-09
-4.07054e-09
-3.4845e-09
-2.18787e-09
-3.46218e-09
-7.84017e-09
-7.56015e-09
-2.1399e-09
-4.80376e-09
-7.90924e-09
-3.94542e-09
-2.52912e-09
-3.34061e-09
-2.01259e-09
-1.52845e-09
-2.06031e-09
-4.33292e-09
-9.79687e-09
-1.40094e-08
-1.37728e-08
-1.34653e-08
-1.07891e-08
-6.61468e-09
-5.61747e-09
-5.27873e-09
-3.74454e-09
-7.43981e-09
-1.38963e-08
-1.01209e-08
-2.14968e-09
-5.38849e-09
-9.90486e-09
-7.31363e-09
-3.67893e-09
-5.35218e-09
-3.62642e-09
-4.65434e-09
-5.25943e-09
-1.77305e-09
-2.54289e-09
-6.22819e-09
-5.76486e-09
-4.63684e-09
-3.7672e-09
-3.92236e-09
-5.94708e-09
-7.24349e-09
-6.12586e-09
-6.11491e-09
-8.90692e-09
-8.64268e-09
-4.49985e-09
-2.83228e-09
-2.87559e-09
-1.98543e-09
-2.51606e-09
-2.67737e-09
-4.27078e-09
-1.24111e-08
-2.31176e-08
-1.59423e-08
-1.43579e-09
-7.22153e-09
-1.52774e-08
-9.91902e-09
-2.22741e-09
-2.17895e-09
-1.40883e-08
-1.94255e-08
-1.10671e-08
-2.46497e-09
-2.96082e-09
-7.06631e-09
-7.65736e-09
-1.04761e-08
-1.23069e-08
-9.06636e-09
-2.95491e-09
-2.81366e-09
-8.11929e-09
-7.49391e-09
-2.55592e-09
-2.32788e-09
-5.61614e-09
-5.44587e-09
-3.69702e-09
-3.51045e-09
-4.20415e-09
-6.63148e-09
-9.96785e-09
-6.56622e-09
-1.0613e-09
-3.13005e-09
-5.49741e-09
-2.64779e-09
-3.62601e-09
-9.02832e-09
-1.54577e-08
-1.85517e-08
-7.75008e-09
-7.92908e-10
-1.41411e-08
-1.95555e-08
-1.08639e-08
-9.65431e-09
-1.30438e-08
-4.92118e-09
-1.70123e-09
-1.41555e-08
-1.74047e-08
-1.033e-08
-3.16375e-09
-1.54041e-09
-5.39651e-09
-4.35205e-09
-1.02562e-08
-1.06167e-08
-4.53633e-09
-3.048e-09
-3.48428e-09
-2.63335e-09
-1.12782e-09
-8.90032e-10
-4.07352e-09
-5.06823e-09
-1.99823e-09
-1.29149e-09
-3.27735e-09
-4.66016e-09
-4.57845e-09
-2.15525e-09
-5.11332e-10
-2.92344e-09
-6.36517e-09
-4.59424e-09
-9.66843e-10
-3.38898e-09
-5.97919e-09
-2.54008e-09
-1.16507e-09
-4.9517e-09
-4.47566e-09
-1.40997e-09
-7.78619e-10
-1.18132e-09
-8.13579e-09
-1.67072e-08
-7.20779e-09
-1.00328e-09
-8.41678e-09
-9.35212e-09
-5.37237e-09
-2.30273e-09
-1.51531e-09
-2.35573e-09
-1.60007e-09
-2.12622e-09
-1.63216e-09
-5.42308e-10
-5.77871e-10
-1.38151e-09
-1.44223e-09
-5.58328e-10
-8.94566e-10
-1.23821e-09
-7.22799e-10
-2.04735e-09
-2.35067e-09
-1.44425e-09
-2.72323e-09
-3.75512e-09
-2.27122e-09
-4.57919e-10
-1.31721e-09
-2.84226e-09
-1.97003e-09
-1.18373e-09
-1.28981e-09
-7.34092e-10
-1.09501e-09
-1.80008e-09
-1.66312e-09
-1.65925e-09
-1.44336e-09
-7.16409e-10
-2.95027e-09
-1.06916e-08
-1.295e-08
-4.4129e-09
-2.50988e-09
-5.599e-09
-5.43342e-09
-4.91758e-09
-4.22436e-09
-2.51498e-09
-1.66205e-09
-1.70143e-09
-1.82648e-09
-1.97634e-09
-1.8791e-09
-1.58102e-09
-1.85948e-09
-1.66732e-09
-1.50501e-09
-2.27844e-09
-1.41427e-09
-1.89324e-10
-1.23284e-09
-2.3589e-09
-3.63372e-09
-6.10715e-09
-6.35449e-09
-3.13929e-09
-8.40401e-10
-1.80373e-09
-2.88995e-09
-2.30895e-09
-2.08419e-09
-3.11391e-09
-4.13139e-09
-4.15756e-09
-3.08708e-09
-1.55316e-09
-7.26027e-10
-8.13416e-10
-2.37906e-09
-7.44695e-09
-9.28386e-09
-3.53223e-09
-1.52325e-09
-3.31457e-09
-3.00937e-09
-2.24223e-09
-2.75538e-09
-1.99348e-09
-1.99631e-09
-7.9681e-10
-4.10088e-10
-1.55368e-09
-2.40724e-09
-1.76863e-09
-6.24849e-10
-5.83017e-10
-1.86588e-09
-3.20714e-09
-2.73754e-09
-1.02431e-09
-1.83636e-09
-3.16994e-09
-2.08742e-09
-2.14926e-09
-3.5814e-09
-2.49402e-09
-3.52004e-10
-8.41405e-10
-3.13341e-09
-4.30486e-09
-3.48601e-09
-2.05665e-09
-1.43246e-09
-1.38585e-09
-1.16773e-09
-7.30062e-10
-3.95781e-10
-1.1701e-09
-2.54625e-09
-2.70765e-09
-3.18446e-09
-2.40149e-09
-3.87908e-10
-6.38482e-10
-1.32836e-09
-1.12578e-09
-1.22738e-09
-1.69875e-09
-1.45584e-09
-1.13794e-09
-7.40042e-10
-1.0171e-09
-2.4694e-09
-3.12105e-09
-1.73731e-09
-3.97855e-10
-1.07396e-09
-2.91622e-09
-3.59565e-09
-2.16807e-09
-5.23031e-10
-4.29351e-10
-5.14204e-10
-4.35159e-10
-1.23746e-09
-1.58633e-09
-7.67011e-10
-7.774e-10
-1.91991e-09
-2.02949e-09
-1.0107e-09
-5.71087e-10
-6.44852e-10
-4.12162e-10
-4.44475e-10
-7.33908e-10
-4.65965e-10
-8.88442e-10
-3.46634e-09
-4.26926e-09
-1.49117e-09
-1.02143e-09
-2.31737e-09
-1.89248e-09
-7.21902e-10
-5.67595e-10
-1.30906e-09
-2.21093e-09
-1.60519e-09
-6.83346e-10
-1.13087e-09
-2.72081e-09
-3.32532e-09
-2.51743e-09
-2.14966e-09
-2.55405e-09
-2.2116e-09
-1.71518e-09
-2.1856e-09
-2.74907e-09
-2.04082e-09
-7.81366e-10
-3.67068e-10
-9.58796e-10
-1.5244e-09
-1.41371e-09
-1.00101e-09
-6.91889e-10
-3.84593e-10
-3.64269e-10
-1.11329e-09
-1.53565e-09
-8.50813e-10
-4.50347e-10
-9.0004e-10
-1.0324e-09
-5.82748e-10
-3.9752e-10
-1.24538e-09
-2.47428e-09
-2.28085e-09
-1.33437e-09
-1.15501e-09
-1.10458e-09
-8.45633e-10
-9.42695e-10
-1.67206e-09
-1.96589e-08
-1.21332e-08
-5.52996e-09
-2.4673e-08
-8.48013e-08
-1.40552e-07
-1.34467e-07
-8.51492e-08
-6.39432e-08
-1.0334e-07
-1.69741e-07
-2.46095e-07
-3.477e-07
-4.85253e-07
-6.45642e-07
-7.97268e-07
-9.06044e-07
-9.23032e-07
-8.56901e-07
-7.59719e-07
-5.72007e-07
-3.90155e-07
-6.11871e-07
-1.01048e-06
-1.25667e-06
-1.35885e-06
-1.24771e-06
-9.70446e-07
-7.59045e-07
-8.15463e-07
-1.16762e-06
-1.56525e-06
-1.62467e-06
-1.14401e-06
-3.35682e-07
-5.73056e-08
-3.97525e-07
-1.50404e-07
-4.99746e-09
-8.34769e-09
-1.25304e-08
-5.32098e-09
-3.02871e-09
-8.57626e-09
-1.96181e-08
-3.21718e-08
-3.82933e-08
-2.91565e-08
-1.00498e-08
-4.33821e-09
-1.35887e-08
-1.96165e-08
-2.26422e-08
-3.4923e-08
-6.31817e-08
-9.82242e-08
-1.19714e-07
-1.27197e-07
-1.21518e-07
-7.958e-08
-4.29683e-08
-4.47951e-08
-1.54432e-08
-8.16441e-08
-1.60286e-07
-1.86816e-07
-1.81562e-07
-1.40504e-07
-8.17627e-08
-4.80506e-08
-5.10858e-08
-7.31666e-08
-1.00536e-07
-1.24375e-07
-1.37499e-07
-6.86545e-08
-2.87324e-08
-1.54175e-07
-4.79144e-08
-1.2951e-08
-8.01792e-09
-5.20728e-09
-1.05523e-09
-3.2286e-09
-1.31299e-08
-2.19091e-08
-1.60815e-08
-1.08702e-08
-2.18081e-08
-3.07054e-08
-2.59169e-08
-1.84754e-08
-2.07368e-08
-3.433e-08
-4.96618e-08
-6.4875e-08
-8.29767e-08
-1.06816e-07
-1.41121e-07
-1.46023e-07
-1.63151e-07
-3.07487e-07
-3.16463e-07
-1.69443e-07
-1.04152e-07
-9.03136e-08
-1.18249e-07
-1.51577e-07
-1.71321e-07
-1.97088e-07
-2.37375e-07
-2.59882e-07
-2.40892e-07
-1.77035e-07
-8.22181e-08
-2.13221e-08
-1.04787e-08
-7.76237e-08
-9.72748e-08
-1.62444e-08
-1.09063e-08
-7.85977e-09
-2.94537e-09
-5.20583e-09
-1.194e-08
-2.25781e-08
-3.06382e-08
-2.68399e-08
-2.96435e-08
-4.1268e-08
-3.80966e-08
-2.49114e-08
-1.78345e-08
-2.24073e-08
-3.23329e-08
-4.2462e-08
-5.89071e-08
-8.36939e-08
-1.10185e-07
-1.35415e-07
-1.51539e-07
-2.65735e-07
-3.0327e-07
-1.54949e-07
-9.51058e-08
-8.24965e-08
-9.71454e-08
-1.18731e-07
-1.36451e-07
-1.5764e-07
-1.79707e-07
-1.9042e-07
-1.88732e-07
-1.71787e-07
-1.34393e-07
-9.02577e-08
-4.6408e-08
-6.99752e-08
-1.43253e-07
-6.50929e-08
-3.07645e-08
-1.3059e-08
-4.96911e-09
-7.42583e-10
-4.70828e-09
-7.18338e-09
-1.0964e-08
-1.40658e-08
-1.1199e-08
-2.469e-08
-2.75817e-08
-1.44168e-08
-3.50692e-09
-2.90053e-09
-1.21075e-08
-1.61834e-08
-1.52035e-08
-1.79048e-08
-1.83901e-08
-3.25761e-08
-3.60718e-08
-7.89404e-08
-1.71359e-07
-8.74889e-08
-4.33849e-08
-3.55692e-08
-1.89853e-08
-7.30639e-09
-2.99737e-09
-2.37504e-09
-6.39232e-09
-1.27151e-08
-1.68753e-08
-2.08603e-08
-1.91104e-08
-1.72378e-08
-1.78188e-08
-2.31219e-08
-1.02377e-07
-1.20101e-07
-7.37803e-08
-1.98959e-08
-1.14151e-08
-3.00301e-09
-8.55888e-09
-1.29667e-08
-1.07543e-08
-1.08647e-08
-1.27957e-08
-1.44721e-08
-3.392e-08
-2.63445e-08
-9.80184e-09
-6.17535e-09
-1.16146e-08
-1.04168e-08
-1.13048e-08
-1.28346e-08
-1.03741e-08
-2.18592e-08
-4.00421e-08
-3.20902e-08
-1.01978e-07
-8.37811e-08
-2.9244e-08
-2.68362e-08
-1.72455e-08
-4.54593e-09
-9.44212e-09
-2.31574e-08
-2.94007e-08
-2.99261e-08
-2.60514e-08
-1.67704e-08
-8.25966e-09
-6.14315e-09
-2.75477e-08
-1.81211e-08
-2.26134e-08
-1.02663e-07
-9.6673e-08
-4.89399e-08
-1.52245e-08
-3.7434e-09
-8.87268e-09
-1.93289e-08
-2.37748e-08
-1.74534e-08
-2.04969e-08
-2.38834e-08
-2.81291e-08
-4.49232e-08
-2.87359e-08
-1.25277e-08
-5.33736e-09
-8.28496e-09
-2.09012e-08
-1.58967e-08
-8.67494e-09
-1.44615e-08
-3.58943e-08
-3.53642e-08
-6.35562e-08
-8.14918e-08
-3.62393e-08
-3.24111e-08
-1.97722e-08
-4.63558e-09
-2.51708e-09
-1.01265e-08
-2.38979e-08
-4.11095e-08
-5.85739e-08
-5.87698e-08
-3.2188e-08
-1.01325e-08
-1.32397e-08
-4.00089e-08
-2.0117e-08
-3.882e-08
-5.69796e-08
-8.78203e-08
-3.68075e-08
-5.79203e-09
-4.65878e-09
-1.91794e-08
-3.44012e-08
-3.99447e-08
-2.44012e-08
-3.96887e-08
-3.8641e-08
-4.36885e-08
-4.95252e-08
-2.05208e-08
-1.5252e-09
-1.73674e-08
-2.95188e-08
-1.58138e-08
-7.82526e-09
-1.10442e-08
-2.70029e-08
-3.88688e-08
-4.12914e-08
-6.417e-08
-4.86652e-08
-3.50802e-08
-1.46965e-08
-4.12746e-09
-1.75941e-09
-1.89386e-09
-3.98472e-09
-1.17108e-08
-3.11794e-08
-5.80088e-08
-6.02327e-08
-2.83059e-08
-8.29691e-09
-2.16957e-08
-4.1273e-08
-2.45055e-08
-2.82792e-08
-7.89007e-08
-7.50871e-08
-1.88988e-08
-4.56769e-09
-1.41022e-08
-2.06372e-08
-3.2589e-08
-3.83415e-08
-2.37597e-08
-5.86643e-08
-5.34536e-08
-4.75509e-08
-2.34642e-08
-2.1873e-09
-2.03889e-08
-2.39838e-08
-1.18907e-08
-7.62902e-09
-8.60617e-09
-1.57041e-08
-3.42113e-08
-2.58765e-08
-4.21305e-08
-5.19714e-08
-2.83414e-08
-7.97434e-09
-3.09545e-09
-1.46916e-09
-1.56277e-09
-1.83862e-09
-2.3533e-09
-7.20893e-09
-2.11745e-08
-3.96448e-08
-3.70817e-08
-1.56557e-08
-8.48017e-09
-2.91263e-08
-4.39351e-08
-4.08346e-08
-3.63578e-08
-7.42271e-08
-3.46055e-08
-1.14461e-08
-8.6044e-09
-6.37294e-09
-1.22918e-08
-2.64419e-08
-2.7394e-08
-2.38855e-08
-7.6258e-08
-6.16918e-08
-2.69511e-08
-8.96012e-09
-1.34415e-08
-1.35454e-08
-1.01737e-08
-6.65448e-09
-7.30865e-09
-8.09507e-09
-1.85573e-08
-1.36676e-08
-2.37149e-08
-4.4481e-08
-1.58914e-08
-4.06176e-09
-2.73476e-09
-8.77256e-10
-2.03675e-09
-3.13892e-09
-2.41919e-09
-2.42462e-09
-7.06591e-09
-1.58838e-08
-2.10283e-08
-1.46223e-08
-6.70185e-09
-1.23356e-08
-4.06268e-08
-5.38432e-08
-2.42944e-08
-3.8574e-08
-4.70757e-08
-1.62141e-08
-3.49443e-09
-5.71649e-09
-1.01615e-08
-1.25197e-08
-1.99232e-08
-1.53022e-08
-3.6543e-08
-8.50396e-08
-4.55635e-08
-1.40746e-08
-9.09395e-09
-1.04092e-08
-5.97209e-09
-4.78705e-09
-8.66276e-09
-8.70613e-09
-6.55678e-09
-5.03443e-09
-1.08128e-08
-2.05468e-08
-8.33019e-09
-7.13108e-09
-2.37852e-09
-6.40546e-10
-2.59996e-09
-4.74433e-09
-4.78428e-09
-2.29056e-09
-3.92093e-09
-1.00627e-08
-1.264e-08
-8.87903e-09
-4.42997e-09
-4.65747e-09
-2.15183e-08
-4.38266e-08
-4.66888e-08
-2.15776e-08
-4.12147e-08
-1.94774e-08
-6.6773e-09
-9.2275e-09
-1.14451e-08
-1.29941e-08
-9.49164e-09
-9.80342e-09
-1.30133e-08
-5.19185e-08
-4.9394e-08
-1.15883e-08
-3.99697e-09
-3.72039e-09
-1.63615e-09
-4.14751e-09
-1.16766e-08
-1.52145e-08
-9.89513e-09
-4.06047e-09
-3.06319e-09
-1.02423e-08
-1.30828e-08
-4.979e-09
-1.17064e-09
-1.57362e-09
-2.57367e-09
-4.9842e-09
-8.45368e-09
-6.55105e-09
-2.96959e-09
-9.30023e-09
-1.34064e-08
-8.32349e-09
-3.14136e-09
-2.99645e-09
-6.11914e-09
-1.58378e-08
-4.72284e-08
-3.07262e-08
-2.04586e-08
-1.98186e-08
-1.86604e-08
-1.2484e-08
-6.34341e-09
-9.17555e-09
-1.12698e-08
-3.98553e-09
-5.96683e-09
-2.7548e-08
-3.98866e-08
-1.33544e-08
-1.76973e-09
-1.60289e-09
-2.54511e-09
-4.26411e-09
-1.50493e-08
-2.43115e-08
-1.87196e-08
-7.02732e-09
-5.73358e-09
-1.20829e-08
-9.08459e-09
-4.23436e-09
-2.64863e-09
-2.46321e-09
-1.88742e-09
-3.93771e-09
-1.1605e-08
-1.59433e-08
-6.9111e-09
-6.67359e-09
-1.58897e-08
-1.32786e-08
-4.29472e-09
-1.46942e-09
-3.13599e-09
-3.80428e-09
-1.3912e-08
-1.77988e-08
-6.09141e-09
-1.24454e-08
-1.76799e-08
-9.59196e-09
-1.30393e-09
-3.21491e-09
-1.11264e-08
-8.78001e-09
-1.53775e-09
-1.65275e-08
-3.38148e-08
-2.17526e-08
-8.36744e-09
-5.42241e-09
-4.46159e-09
-4.73355e-09
-1.74631e-08
-2.97216e-08
-2.18555e-08
-8.53156e-09
-4.07079e-09
-9.43987e-09
-8.74603e-09
-7.42732e-09
-8.05586e-09
-5.01428e-09
-2.9769e-09
-5.41152e-09
-1.21708e-08
-2.03539e-08
-1.64193e-08
-5.71922e-09
-1.2701e-08
-1.6225e-08
-8.69887e-09
-2.13937e-09
-1.75738e-09
-2.23065e-09
-1.87334e-09
-2.24913e-09
-3.83728e-09
-4.32927e-09
-4.07366e-09
-3.70829e-09
-2.14136e-09
-1.855e-09
-8.13628e-09
-1.17505e-08
-4.58078e-09
-7.99463e-09
-2.57123e-08
-2.73221e-08
-1.55591e-08
-7.17734e-09
-3.8179e-09
-4.76577e-09
-1.34847e-08
-2.65891e-08
-2.00028e-08
-6.19438e-09
-3.89776e-09
-8.59876e-09
-1.64318e-08
-1.78429e-08
-8.65308e-09
-5.2103e-09
-6.66367e-09
-6.44552e-09
-8.62987e-09
-1.38872e-08
-1.77356e-08
-9.79782e-09
-6.76612e-09
-1.32803e-08
-1.05318e-08
-5.02002e-09
-1.96427e-09
-9.37885e-10
-1.63119e-09
-2.52162e-09
-2.09148e-09
-7.65715e-10
-6.96824e-10
-1.46917e-09
-1.48991e-09
-9.36684e-10
-5.29644e-09
-1.02894e-08
-5.46926e-09
-5.27618e-09
-1.79044e-08
-2.23814e-08
-1.24016e-08
-4.18397e-09
-1.80321e-09
-2.47859e-09
-5.94175e-09
-1.44385e-08
-1.78164e-08
-6.69531e-09
-4.15504e-09
-1.60785e-08
-2.08373e-08
-9.3512e-09
-7.63166e-09
-1.64963e-08
-1.6063e-08
-6.00898e-09
-2.05942e-09
-8.30277e-09
-1.41286e-08
-1.39481e-08
-5.622e-09
-6.99104e-09
-1.03579e-08
-7.57058e-09
-3.59221e-09
-2.16351e-09
-6.80199e-10
-1.71536e-09
-1.4668e-09
-5.34443e-10
-3.89879e-10
-1.09584e-09
-1.52888e-09
-9.9428e-10
-4.07051e-09
-1.02684e-08
-5.50311e-09
-3.79522e-09
-1.47706e-08
-1.78004e-08
-8.70992e-09
-1.61081e-09
-6.92072e-10
-2.29412e-09
-3.25932e-09
-5.84007e-09
-1.0426e-08
-1.15583e-08
-1.19951e-08
-1.165e-08
-4.94947e-09
-8.55472e-09
-2.23905e-08
-2.01639e-08
-8.06416e-09
-6.5629e-09
-5.71632e-09
-3.99209e-09
-9.78064e-09
-1.5278e-08
-1.1374e-08
-4.05633e-09
-6.46868e-09
-9.26559e-09
-6.87335e-09
-5.8262e-09
-2.20071e-09
-1.52317e-09
-2.55516e-09
-1.72662e-09
-8.6299e-10
-1.8392e-09
-2.02077e-09
-2.04957e-09
-3.71137e-09
-8.4122e-09
-7.17212e-09
-4.12952e-09
-1.31399e-08
-1.50856e-08
-6.31369e-09
-2.69517e-09
-3.76045e-09
-3.41185e-09
-2.68157e-09
-4.85193e-09
-8.63173e-09
-9.10451e-09
-4.79405e-09
-1.05667e-09
-9.53789e-09
-2.46492e-08
-1.922e-08
-3.00195e-09
-4.09519e-09
-9.02572e-09
-6.08262e-09
-5.75771e-09
-7.73812e-09
-1.23601e-08
-1.59481e-08
-9.9275e-09
-4.12396e-09
-5.77116e-09
-7.94113e-09
-4.72956e-09
-5.04653e-09
-5.68561e-09
-4.24046e-09
-1.42101e-09
-2.49824e-09
-4.03124e-09
-2.25214e-09
-2.20461e-09
-5.33162e-09
-5.31313e-09
-3.91656e-09
-5.1856e-09
-7.96945e-09
-6.43374e-09
-5.611e-09
-5.606e-09
-3.3005e-09
-1.42998e-09
-1.72267e-09
-2.68742e-09
-3.36681e-09
-2.35276e-09
-1.90958e-09
-9.48733e-09
-1.77103e-08
-1.03912e-08
-1.85527e-09
-7.86423e-09
-1.40617e-08
-1.50479e-08
-1.117e-08
-2.89432e-09
-8.58813e-09
-1.06077e-08
-1.055e-08
-1.02431e-08
-6.28538e-09
-3.54972e-09
-3.86861e-09
-1.19073e-09
-2.65736e-09
-4.2951e-09
-2.74425e-09
-7.579e-10
-9.71017e-10
-1.73649e-09
-1.7505e-09
-1.58206e-09
-3.51887e-09
-4.87335e-09
-1.62852e-09
-1.18005e-09
-3.19086e-09
-4.02121e-09
-3.55933e-09
-1.61006e-09
-3.71991e-10
-4.26987e-10
-5.0848e-10
-1.99531e-10
-9.94749e-10
-2.94698e-09
-5.69487e-09
-6.8847e-09
-2.99242e-09
-1.43053e-09
-5.25037e-09
-5.78907e-09
-3.38969e-09
-7.35232e-09
-2.07139e-08
-1.74092e-08
-2.64656e-09
-6.9969e-09
-8.60487e-09
-5.80229e-09
-3.18921e-09
-1.82333e-09
-1.36157e-09
-1.93941e-09
-1.55263e-09
-1.91603e-09
-1.58245e-09
-1.10719e-09
-1.34527e-09
-1.63506e-09
-2.25856e-09
-2.87999e-09
-2.07702e-09
-1.61942e-09
-1.93319e-09
-1.96916e-09
-3.4316e-09
-4.27147e-09
-3.28474e-09
-2.21302e-09
-1.19306e-09
-2.91575e-10
-4.07687e-10
-7.51366e-10
-1.12174e-09
-2.0929e-09
-2.43343e-09
-2.1202e-09
-2.78826e-09
-3.74643e-09
-3.21988e-09
-1.77167e-09
-5.27517e-10
-2.34557e-09
-1.26846e-08
-2.3604e-08
-1.40553e-08
-2.21257e-09
-5.82433e-09
-7.33897e-09
-4.26717e-09
-2.48115e-09
-2.47276e-09
-2.26788e-09
-1.57166e-09
-2.12763e-09
-2.76501e-09
-2.60314e-09
-2.3367e-09
-2.5111e-09
-3.23033e-09
-3.2236e-09
-1.64241e-09
-4.26372e-10
-1.42472e-09
-2.06582e-09
-1.95625e-09
-2.39805e-09
-2.30601e-09
-2.35611e-09
-1.91622e-09
-6.23913e-10
-3.95672e-10
-1.13251e-09
-1.16662e-09
-1.03454e-09
-1.92742e-09
-3.33998e-09
-4.24365e-09
-3.56548e-09
-1.63891e-09
-4.76469e-10
-1.23069e-09
-3.64353e-09
-7.48675e-09
-1.12852e-08
-9.65508e-09
-3.84356e-09
-1.49152e-09
-2.85088e-09
-3.49511e-09
-2.79564e-09
-2.61377e-09
-3.40362e-09
-2.65543e-09
-1.23218e-09
-1.55227e-09
-3.4524e-09
-4.48511e-09
-3.49718e-09
-2.44034e-09
-2.02331e-09
-1.7608e-09
-3.30376e-09
-4.47842e-09
-2.69666e-09
-1.60257e-09
-2.5312e-09
-2.39292e-09
-2.4057e-09
-3.03386e-09
-2.42607e-09
-1.44433e-09
-1.77365e-09
-2.50462e-09
-2.0325e-09
-1.00024e-09
-8.35331e-10
-1.34528e-09
-1.66817e-09
-1.6449e-09
-1.22858e-09
-1.20715e-09
-2.05412e-09
-2.58924e-09
-2.39883e-09
-2.03748e-09
-9.66067e-10
-7.86749e-10
-1.22923e-09
-1.26243e-09
-1.45768e-09
-2.46878e-09
-2.29421e-09
-2.30366e-09
-1.39262e-09
-3.31239e-10
-4.7552e-10
-1.69995e-09
-2.19554e-09
-1.47315e-09
-1.32407e-09
-1.64193e-09
-1.63183e-09
-2.44616e-09
-2.38986e-09
-1.10409e-09
-5.76858e-10
-4.81956e-10
-5.27282e-10
-1.39321e-09
-1.7704e-09
-9.70805e-10
-5.59604e-10
-1.10823e-09
-1.50407e-09
-1.8037e-09
-2.34228e-09
-2.2722e-09
-1.48807e-09
-7.09207e-10
-1.68425e-10
-2.46071e-10
-1.42455e-09
-2.27802e-09
-1.06492e-09
-6.49547e-10
-1.56865e-09
-1.40358e-09
-5.40224e-10
-1.01584e-10
-5.70111e-10
-1.54302e-09
-2.02116e-09
-2.30193e-09
-1.82861e-09
-2.0311e-09
-2.40085e-09
-1.66846e-09
-7.99873e-10
-8.52178e-10
-1.55569e-09
-2.85145e-09
-3.95238e-09
-3.84203e-09
-3.13164e-09
-2.20642e-09
-1.11625e-09
-6.27911e-10
-1.46646e-09
-3.19824e-09
-4.1775e-09
-3.31944e-09
-1.59381e-09
-8.53792e-10
-1.67605e-09
-2.31672e-09
-1.49129e-09
-3.40549e-10
-2.20437e-10
-7.10532e-10
-6.75537e-10
-3.66084e-10
-5.83981e-10
-1.26847e-09
-1.48503e-09
-1.20148e-09
-1.47737e-09
-1.91703e-09
-1.6948e-09
-9.3805e-10
-4.33311e-10
-9.39062e-10
-3.12044e-08
-1.73524e-08
-2.77915e-08
-7.68123e-08
-1.7008e-07
-2.33472e-07
-2.33871e-07
-1.96331e-07
-1.66402e-07
-1.78945e-07
-2.64073e-07
-4.34851e-07
-6.66339e-07
-9.01479e-07
-1.10477e-06
-1.27209e-06
-1.43294e-06
-1.57965e-06
-1.60492e-06
-1.27426e-06
-6.45253e-07
-2.1901e-07
-5.24849e-08
-1.76941e-07
-3.60894e-07
-3.90554e-07
-3.3757e-07
-3.48064e-07
-5.47489e-07
-9.68184e-07
-1.42061e-06
-1.54262e-06
-1.15816e-06
-5.33421e-07
-1.19687e-07
-7.34346e-08
-1.33517e-07
-6.43257e-08
-7.52138e-09
-2.77169e-08
-1.53376e-08
-1.56422e-08
-9.42435e-09
-1.59909e-08
-3.02936e-08
-3.71428e-08
-3.75365e-08
-4.12311e-08
-4.57986e-08
-4.04378e-08
-2.88185e-08
-2.68566e-08
-3.80755e-08
-5.51521e-08
-7.05955e-08
-7.7172e-08
-7.80527e-08
-9.12558e-08
-1.29851e-07
-1.70417e-07
-1.32579e-07
-4.28782e-08
-3.42357e-08
-1.90643e-08
-9.37972e-08
-1.42506e-07
-1.11654e-07
-6.84307e-08
-5.23128e-08
-6.49124e-08
-9.71701e-08
-1.33818e-07
-1.50702e-07
-1.30872e-07
-7.97216e-08
-1.86289e-08
-1.7826e-08
-6.79558e-08
-4.59979e-08
-1.44411e-08
-1.83747e-08
-1.44643e-08
-9.38095e-09
-1.10273e-08
-1.37479e-08
-1.15007e-08
-7.42327e-09
-5.69511e-09
-7.37506e-09
-1.34056e-08
-2.51412e-08
-3.88043e-08
-4.85797e-08
-5.85372e-08
-8.03485e-08
-1.23594e-07
-1.86619e-07
-2.3717e-07
-2.31922e-07
-1.62257e-07
-8.68207e-08
-8.76365e-08
-1.97584e-07
-1.73489e-07
-4.75795e-08
-1.92427e-08
-1.80584e-08
-5.09454e-08
-1.12534e-07
-1.70126e-07
-1.93612e-07
-1.80023e-07
-1.42332e-07
-1.02182e-07
-7.09898e-08
-3.75973e-08
-2.70126e-08
-7.73254e-08
-1.17718e-07
-5.40937e-08
-3.45274e-08
-1.64504e-08
-1.16297e-08
-1.39701e-08
-1.66926e-08
-1.65569e-08
-1.34617e-08
-1.12084e-08
-1.16411e-08
-1.67404e-08
-2.76792e-08
-3.88768e-08
-4.28498e-08
-4.37186e-08
-5.43248e-08
-8.69175e-08
-1.43522e-07
-1.92014e-07
-1.82421e-07
-1.27714e-07
-8.49111e-08
-9.3686e-08
-2.02608e-07
-2.46337e-07
-9.364e-08
-3.77318e-08
-3.42539e-08
-6.83212e-08
-1.23769e-07
-1.63329e-07
-1.67513e-07
-1.48049e-07
-1.23698e-07
-1.07783e-07
-1.05834e-07
-1.05165e-07
-8.95171e-08
-1.01509e-07
-1.53273e-07
-1.21891e-07
-7.19008e-08
-2.2381e-08
-9.53106e-09
-3.80738e-09
-3.52891e-09
-4.52251e-09
-2.77754e-09
-8.44902e-10
-2.77712e-09
-3.98757e-09
-4.68812e-09
-6.58643e-09
-7.10965e-09
-7.24519e-09
-1.04289e-08
-2.10383e-08
-3.83842e-08
-5.01658e-08
-3.50737e-08
-1.57482e-08
-2.3147e-08
-2.84644e-08
-4.56057e-08
-1.40725e-07
-7.09653e-08
-2.28777e-08
-1.52253e-08
-5.87719e-09
-9.13735e-09
-1.90486e-08
-2.11371e-08
-1.28897e-08
-5.34571e-09
-4.54787e-09
-8.30323e-09
-1.32564e-08
-1.7098e-08
-3.49823e-08
-8.83868e-08
-1.58248e-07
-1.38084e-07
-4.10853e-08
-1.41193e-08
-3.24253e-09
-7.22401e-10
-2.89568e-09
-3.27077e-09
-1.37294e-09
-4.2272e-09
-1.21794e-08
-1.25105e-08
-7.99693e-09
-4.2399e-09
-3.64427e-09
-8.19549e-09
-1.76113e-08
-2.1493e-08
-1.58802e-08
-1.0509e-08
-5.4026e-09
-1.68795e-08
-4.59054e-08
-2.54687e-08
-6.28926e-08
-6.50231e-08
-1.69368e-08
-1.30041e-08
-9.88059e-09
-4.5528e-09
-2.16465e-09
-2.32657e-09
-4.17951e-09
-1.08808e-08
-2.05473e-08
-2.46177e-08
-2.63582e-08
-1.99496e-08
-6.92441e-09
-1.64005e-08
-1.11086e-07
-1.59543e-07
-8.90599e-08
-2.14314e-08
-6.31339e-09
-1.16864e-09
-2.49708e-09
-4.14406e-09
-3.57183e-09
-3.17516e-09
-4.49925e-09
-1.14411e-08
-1.36385e-08
-7.97388e-09
-3.98298e-09
-9.9878e-09
-2.08021e-08
-1.57962e-08
-5.34824e-09
-7.0578e-09