/*--------------------------------*- C++ -*----------------------------------*\
| =========                 |                                                 |
| \\      /  F ield         | OpenFOAM: The Open Source CFD Toolbox           |
|  \\    /   O peration     | Version:  5.0                                   |
|   \\  /    A nd           | Web:      www.OpenFOAM.org                      |
|    \\/     M anipulation  |                                                 |
\*---------------------------------------------------------------------------*/
FoamFile
{
    version     2.0;
    format      ascii;
    class       volVectorField;
    location    "50.4676134421789371";
    object      VV1;
}
// * * * * * * * * * * * * * * * * * * * * * * * * * * * * * * * * * * * * * //

dimensions      [0 2 -3 0 0 0 0];

internalField   nonuniform List<vector> 
60000
(
(1.81715e-10 -7.70683e-09 2.34977e-10)
(5.42753e-11 1.16248e-09 2.60918e-11)
(-8.47413e-11 8.56246e-10 -1.45892e-12)
(-4.27237e-11 5.44489e-10 -8.73136e-12)
(1.83905e-12 3.13026e-09 -2.53842e-11)
(-4.05138e-11 1.36391e-09 -2.9452e-11)
(-2.66894e-11 -1.88412e-09 -1.98041e-11)
(2.20532e-11 -4.97557e-10 6.83108e-11)
(-9.1967e-12 -3.98884e-09 2.3147e-10)
(-5.89167e-11 -2.16653e-08 6.12463e-10)
(7.0464e-12 -2.6419e-08 1.02234e-09)
(5.45658e-11 -1.09827e-08 6.34368e-10)
(2.22444e-11 -1.24822e-09 -6.71955e-11)
(4.70772e-12 -5.55006e-11 -3.02723e-10)
(-8.24252e-12 -1.86965e-09 -3.35213e-10)
(-1.8852e-11 -9.24743e-09 -3.82872e-10)
(-6.49484e-11 -1.83998e-08 -3.69949e-10)
(-3.35135e-10 -2.55943e-08 3.76603e-11)
(-7.26751e-10 -3.60979e-08 -3.35185e-10)
(-2.82674e-10 -3.68652e-08 -1.88609e-09)
(7.22219e-10 -1.04117e-08 -1.79327e-09)
(3.92284e-10 -2.71947e-08 -2.37701e-10)
(-7.58823e-10 -1.17638e-07 6.63038e-10)
(-8.3322e-10 -1.46356e-07 -1.15242e-09)
(-2.00855e-10 -9.78119e-08 -2.82437e-09)
(6.94e-12 -4.51616e-08 -1.7351e-09)
(2.2835e-11 -2.55879e-08 -1.55708e-10)
(6.1319e-10 -2.37428e-08 -6.0075e-10)
(9.70144e-10 -1.57841e-08 -9.37009e-10)
(4.09734e-10 -2.09017e-09 -2.34092e-10)
(-3.976e-10 -3.53426e-09 -1.95231e-10)
(-8.3772e-10 -3.03113e-08 -1.18645e-09)
(-5.06193e-10 -6.81595e-08 -1.57556e-09)
(6.02528e-10 -8.26961e-08 -5.84831e-10)
(1.15534e-09 -5.41668e-08 3.63473e-10)
(2.8431e-10 -4.75206e-09 6.33761e-10)
(-2.33308e-10 2.22378e-10 2.68651e-10)
(-1.27153e-10 -2.44904e-09 6.0155e-11)
(-6.60314e-11 -2.18706e-08 2.46528e-10)
(1.32319e-10 -2.23833e-08 3.93064e-10)
(2.17715e-09 -2.036e-08 2.42311e-09)
(8.04817e-10 -4.90569e-09 7.04601e-10)
(3.11315e-11 -6.24128e-10 2.62642e-12)
(2.76797e-10 1.56119e-10 -2.67556e-11)
(8.07175e-11 1.39232e-09 -3.43109e-11)
(-4.61649e-10 3.47015e-09 -5.00997e-11)
(-1.58517e-10 2.20533e-10 -1.93734e-10)
(-2.36884e-10 -3.92006e-10 6.78637e-10)
(-2.12744e-09 -3.43914e-09 2.92355e-09)
(-2.20004e-09 -3.1781e-08 6.38247e-09)
(1.07099e-09 -4.76726e-08 9.26591e-09)
(2.48159e-09 -2.52273e-08 6.7458e-09)
(1.07891e-09 -3.82009e-09 8.86432e-10)
(-6.795e-11 9.20499e-12 -9.65992e-10)
(-9.19132e-10 -2.00328e-09 -8.20365e-10)
(-1.64846e-09 -1.13545e-08 -1.04802e-09)
(-1.57907e-09 -2.30609e-08 -1.53567e-09)
(-1.41728e-09 -2.35964e-08 -2.91225e-11)
(-3.35975e-10 -1.80972e-08 -1.46933e-09)
(2.90589e-09 -5.6413e-09 -1.42989e-08)
(1.79365e-10 5.75175e-09 -4.51275e-09)
(-1.1261e-08 -5.17221e-08 1.29755e-08)
(-1.11957e-08 -2.1352e-07 1.09147e-08)
(2.9218e-09 -2.14897e-07 -1.51493e-08)
(1.04406e-08 -9.21255e-08 -2.95963e-08)
(7.28574e-09 -8.13776e-09 -1.90627e-08)
(2.13774e-09 9.14301e-09 -4.7796e-09)
(3.1318e-10 7.72667e-09 -1.518e-09)
(1.11569e-09 3.32875e-09 -2.34721e-09)
(7.84753e-10 2.68721e-10 -6.87424e-10)
(-2.41098e-09 -5.44576e-10 -6.46058e-10)
(-5.60138e-09 -3.29263e-09 -4.10364e-09)
(-4.73125e-09 -1.56935e-08 -6.954e-09)
(7.4795e-10 -3.02384e-08 -3.1759e-09)
(6.59576e-09 -3.325e-08 3.10244e-09)
(5.17857e-09 -1.44529e-08 4.2606e-09)
(4.90095e-10 7.15215e-11 2.13897e-09)
(-2.09067e-09 5.49543e-11 1.39886e-10)
(-1.94014e-09 -1.18565e-08 6.90703e-10)
(1.28425e-09 -2.96508e-08 2.00417e-09)
(2.73282e-09 -1.36561e-08 1.37723e-09)
(2.17625e-09 -5.2175e-09 1.00747e-09)
(4.67453e-10 -1.8031e-10 3.99933e-11)
(1.48872e-10 -2.39783e-10 -1.73026e-11)
(3.63054e-10 -1.29244e-09 -1.04663e-10)
(-1.27409e-10 3.69254e-09 -3.3935e-11)
(-4.43506e-10 9.02951e-09 -8.90725e-11)
(-3.58997e-10 1.53741e-09 -7.95315e-11)
(-3.28812e-09 3.14034e-09 1.53693e-09)
(-4.76719e-09 4.157e-10 3.59515e-09)
(6.27115e-10 -2.20227e-08 4.93847e-09)
(4.6907e-09 -1.5398e-08 4.2252e-09)
(2.72558e-09 -1.28572e-09 1.28964e-09)
(2.14765e-10 3.44257e-11 -9.54593e-11)
(-1.18036e-09 2.34697e-09 -3.19147e-12)
(-2.1969e-09 1.15244e-09 3.63238e-11)
(-1.27232e-09 -2.06596e-09 8.80588e-10)
(3.30485e-10 9.02466e-09 9.51698e-10)
(1.23408e-09 2.76671e-08 1.34664e-10)
(2.04468e-09 2.88924e-08 -1.20146e-09)
(-4.3579e-09 3.13378e-09 1.33213e-08)
(-2.28394e-08 -4.20756e-09 2.92858e-08)
(-1.78639e-08 -1.01429e-07 1.96496e-08)
(1.23084e-08 -9.28482e-08 -1.55261e-08)
(2.17412e-08 -8.19163e-10 -3.50649e-08)
(1.05394e-08 2.48225e-08 -1.6901e-08)
(1.57163e-09 8.86756e-09 8.49562e-10)
(-3.7608e-12 3.67379e-09 3.62179e-09)
(1.23721e-10 6.66322e-09 1.15547e-09)
(-6.09442e-11 1.48744e-09 -8.61603e-11)
(-5.85556e-10 3.79433e-09 -8.51572e-10)
(-2.03179e-09 2.51966e-08 -2.42173e-09)
(-3.07113e-09 5.32315e-08 -4.02095e-09)
(-1.36953e-09 5.92885e-08 -2.4975e-09)
(2.35011e-09 3.64803e-08 2.16853e-09)
(3.49045e-09 5.69497e-09 3.76308e-09)
(1.30873e-09 3.65472e-09 2.06965e-09)
(-1.25289e-09 1.96213e-09 3.36161e-10)
(-3.18268e-09 1.76343e-08 2.87734e-10)
(-9.35115e-10 2.39812e-09 7.21422e-10)
(1.18245e-09 -1.05961e-09 7.23833e-10)
(2.32048e-09 -5.2685e-09 4.15879e-10)
(5.98286e-10 1.04428e-09 -2.19154e-10)
(1.53242e-10 -1.16452e-11 -2.53145e-11)
(5.35234e-10 5.06925e-10 -2.53387e-10)
(7.73649e-10 1.86893e-09 -9.85145e-11)
(-3.94094e-10 1.36171e-08 -3.0887e-11)
(-9.48801e-10 1.11495e-08 -2.72445e-10)
(-2.14496e-09 3.11342e-09 2.21355e-10)
(-5.02954e-09 2.39474e-08 1.53887e-09)
(-8.28625e-10 2.52035e-09 3.20728e-09)
(4.8037e-09 -1.65621e-08 3.12573e-09)
(2.80674e-09 -2.60916e-10 9.32183e-10)
(3.49661e-10 2.32228e-10 -7.95011e-11)
(-7.54454e-10 4.94194e-09 -1.15158e-09)
(-2.13448e-09 5.32181e-09 -3.47027e-09)
(-6.4233e-10 -2.26361e-09 -1.30965e-09)
(2.05958e-09 8.64176e-09 1.54489e-09)
(1.94552e-09 2.76731e-08 5.418e-11)
(-2.32444e-11 3.45236e-08 2.83728e-09)
(-3.42217e-09 1.79593e-09 3.04119e-08)
(-2.29243e-08 4.81278e-08 4.60936e-08)
(-2.14096e-08 -5.48474e-09 1.81886e-08)
(1.43262e-08 -6.98551e-08 -8.70009e-09)
(2.37455e-08 -1.98964e-09 -3.48637e-08)
(8.13981e-09 9.40974e-09 -1.30664e-08)
(-4.05605e-10 -3.61861e-09 3.2856e-09)
(7.48645e-11 -6.93203e-09 3.72516e-09)
(9.4967e-10 -3.62855e-09 1.02064e-09)
(5.19564e-10 1.0258e-09 -3.87161e-10)
(3.16654e-10 3.41541e-09 -8.70796e-10)
(1.1072e-10 8.75782e-09 -1.72188e-09)
(-7.08973e-10 2.27777e-08 -2.45158e-09)
(-1.09326e-09 3.70116e-08 -2.86763e-09)
(4.4245e-10 3.67941e-08 -8.09475e-11)
(1.31501e-09 2.26234e-08 2.24199e-09)
(-5.41737e-11 1.40228e-08 1.54099e-09)
(-4.57622e-10 3.15889e-09 7.30606e-10)
(-1.7575e-09 1.0596e-08 2.04568e-10)
(-2.33527e-09 2.31471e-08 1.063e-09)
(-9.65397e-10 1.01876e-08 6.82585e-10)
(2.44701e-09 -1.25338e-08 -3.21495e-11)
(1.16781e-09 -2.26547e-09 -1.09573e-09)
(7.54395e-11 1.53141e-10 -9.44903e-11)
(6.00583e-10 -5.30221e-10 -3.01895e-10)
(1.55957e-09 -1.52834e-09 -2.18796e-10)
(8.1177e-10 3.10456e-09 -6.15212e-11)
(-1.72429e-09 1.74384e-08 -1.07754e-10)
(-1.66869e-09 6.59464e-09 2.70665e-10)
(-4.8205e-09 1.54528e-08 6.48248e-10)
(-4.72342e-09 2.73608e-08 3.78267e-09)
(4.30124e-09 -2.61854e-08 6.74508e-09)
(4.99802e-09 -1.62853e-08 3.25847e-09)
(9.07368e-10 6.16185e-10 -7.23227e-10)
(-5.3335e-10 1.03804e-09 -2.60712e-09)
(-3.18197e-09 -6.15518e-09 -9.13743e-09)
(-8.8684e-10 -2.7176e-08 -6.85337e-09)
(4.21673e-09 -8.84621e-09 6.76883e-11)
(4.67527e-09 5.75818e-09 -7.0245e-11)
(-1.25506e-09 2.70329e-08 1.03341e-09)
(-2.60743e-09 1.04059e-08 3.2244e-08)
(-2.38194e-08 4.03086e-08 8.0287e-08)
(-3.35192e-08 -3.05221e-09 2.56745e-08)
(1.25736e-08 -1.55285e-07 4.26499e-09)
(3.22982e-08 -4.04628e-08 -4.48254e-08)
(1.05672e-08 -5.21659e-10 -1.98449e-08)
(-4.425e-10 1.19792e-09 1.31712e-09)
(-1.3273e-11 1.48944e-09 2.83913e-09)
(1.11874e-09 -1.54718e-09 1.45527e-09)
(8.35441e-10 -1.77674e-09 -1.07712e-10)
(3.70879e-10 -6.40833e-10 -4.90893e-10)
(3.75413e-10 -9.75398e-10 -5.99059e-10)
(5.20835e-10 2.33599e-10 -8.80086e-10)
(5.05375e-10 6.93198e-09 -1.39003e-09)
(5.94065e-10 1.6902e-08 -9.04814e-10)
(6.2369e-10 1.82804e-08 3.12462e-09)
(-1.19328e-09 1.53746e-08 3.64811e-09)
(-1.80085e-09 1.08668e-08 2.36666e-09)
(-6.16e-10 1.66518e-09 4.63954e-10)
(-2.37272e-09 1.30287e-08 1.00387e-09)
(-2.42666e-09 1.49821e-08 1.78841e-09)
(4.40501e-10 1.56395e-10 -1.952e-10)
(2.44107e-09 -8.54686e-09 -6.17565e-10)
(4.21451e-10 -6.01944e-10 -4.45592e-10)
(2.76377e-10 -1.35514e-09 -6.77181e-11)
(1.23695e-09 -3.56555e-09 -2.81568e-10)
(2.32403e-09 -8.52104e-09 -9.90933e-11)
(-3.45095e-10 3.63483e-09 -3.58299e-10)
(-2.49205e-09 1.43164e-08 5.14718e-10)
(-1.93818e-09 2.19893e-09 7.32456e-10)
(-6.6663e-09 4.34433e-08 1.55392e-09)
(-1.68716e-09 2.5798e-08 6.28114e-09)
(6.5971e-09 -1.78909e-08 7.09226e-09)
(2.88872e-09 -2.1672e-09 6.24405e-11)
(-1.79251e-09 -4.0511e-09 -5.27772e-09)
(-6.25532e-09 -3.5917e-08 -1.31755e-08)
(-1.02036e-09 -6.51107e-08 -9.7043e-09)
(6.77282e-09 -1.74298e-08 4.84103e-11)
(7.04079e-09 -9.36655e-09 -1.21428e-09)
(8.01375e-10 -1.02528e-08 -4.01788e-10)
(-1.51658e-09 1.54323e-08 1.60188e-08)
(-2.48488e-08 1.59419e-08 9.8737e-08)
(-4.9474e-08 7.29843e-08 5.00382e-08)
(8.8999e-09 -6.76625e-08 2.03522e-08)
(4.60583e-08 -2.72155e-10 -5.31876e-08)
(1.41332e-08 7.2441e-10 -2.79331e-08)
(-1.0029e-10 2.22115e-09 -1.09035e-09)
(-3.27505e-10 3.62709e-09 1.62258e-09)
(4.42484e-10 1.52343e-10 9.00046e-10)
(6.22643e-10 -3.03975e-09 8.10285e-11)
(4.31155e-10 -3.28598e-09 -1.2918e-09)
(2.14328e-10 -3.43737e-09 -9.61424e-10)
(3.48756e-10 -4.70545e-09 -5.59071e-10)
(1.23954e-09 -6.21622e-09 -2.35361e-10)
(2.12795e-09 -4.08243e-09 -8.7447e-11)
(1.1578e-09 5.25627e-09 2.41841e-09)
(-1.04729e-09 9.04401e-09 6.24699e-09)
(-2.37336e-09 1.12166e-08 5.79476e-09)
(-1.55192e-09 6.62669e-09 3.33012e-09)
(-1.05377e-09 2.60338e-09 9.68633e-11)
(-1.21861e-09 5.50396e-09 2.60301e-09)
(-1.23811e-09 1.41289e-08 1.05737e-09)
(9.10146e-10 1.47954e-10 -3.12898e-10)
(1.22956e-09 -1.35318e-09 -2.38311e-10)
(1.43843e-10 -6.19354e-10 -4.74582e-12)
(4.07292e-10 -1.95337e-09 -1.82835e-10)
(1.84625e-09 -7.58423e-09 -1.82966e-10)
(1.91152e-09 -1.25701e-08 -2.29182e-10)
(-1.82082e-09 5.74509e-09 -3.84053e-10)
(-3.0001e-10 3.12875e-09 1.93492e-09)
(-6.16705e-10 1.53192e-08 4.81566e-10)
(-5.22625e-09 7.39036e-08 1.75651e-10)
(2.04516e-10 1.82709e-08 -2.05177e-09)
(2.99179e-09 -3.289e-09 -1.92137e-09)
(-5.98733e-09 -9.30053e-09 -7.97118e-09)
(-1.29666e-08 -8.17105e-08 -1.08658e-08)
(2.18617e-09 -7.66113e-08 -1.66468e-09)
(1.31755e-08 -9.71426e-09 6.04447e-09)
(5.6173e-09 -4.64128e-09 -2.74604e-09)
(2.635e-09 -2.52377e-08 -2.15846e-09)
(1.61384e-09 -3.54826e-09 1.17995e-09)
(-1.41892e-08 -2.58803e-09 6.68787e-08)
(-4.56972e-08 1.71032e-07 5.9884e-08)
(8.33e-10 1.63349e-07 3.1796e-08)
(4.21859e-08 5.61898e-08 -3.59673e-08)
(1.06096e-08 1.59241e-09 -1.93952e-08)
(2.29e-12 1.53175e-09 -1.02275e-09)
(-3.22985e-10 3.12529e-09 7.16421e-10)
(8.57625e-11 1.6789e-09 3.30409e-10)
(2.88582e-10 -9.22325e-11 2.3667e-10)
(2.98825e-10 -7.74163e-10 6.72712e-11)
(1.57252e-10 -9.93051e-10 -4.36485e-10)
(7.88747e-11 -1.68361e-09 -5.43685e-11)
(5.32252e-10 -3.04668e-09 -6.10337e-11)
(2.33322e-09 -8.45839e-09 1.44962e-10)
(2.74032e-09 -9.14937e-09 2.15963e-09)
(-2.2217e-10 1.52843e-09 6.50799e-09)
(-2.14142e-09 5.52085e-09 8.97276e-09)
(-1.94409e-09 7.72087e-09 8.80143e-09)
(-1.12705e-09 5.60518e-09 1.81938e-09)
(-9.95195e-10 5.37428e-09 7.29571e-10)
(-3.63521e-10 5.57707e-09 4.38846e-09)
(-2.27835e-10 9.19755e-09 -7.37581e-11)
(1.97409e-10 2.08796e-09 -4.23782e-12)
(1.80511e-10 -2.25672e-10 -6.58402e-11)
(5.0936e-11 -3.25099e-10 -3.54797e-11)
(4.34463e-10 -2.254e-09 -4.57281e-10)
(1.85526e-09 -1.05943e-08 -2.55325e-10)
(3.0569e-10 -1.05394e-08 1.07351e-10)
(-3.59505e-10 3.88016e-09 6.15589e-10)
(5.6328e-09 -7.05651e-09 1.9353e-09)
(-7.8062e-10 4.05711e-08 -2.44859e-09)
(-6.83861e-09 3.21913e-08 -1.30214e-08)
(-2.15796e-09 1.3808e-09 -1.1713e-08)
(-1.56808e-08 -2.40821e-08 -8.38269e-09)
(-1.7853e-08 -7.65505e-08 -3.06882e-09)
(1.1797e-08 -1.29838e-08 1.43308e-08)
(1.92536e-08 7.16527e-09 1.72118e-08)
(4.3532e-09 -1.46417e-11 -2.86837e-10)
(8.10663e-10 -6.80722e-09 -5.40679e-09)
(2.29543e-09 -1.34379e-08 -5.30936e-10)
(5.93187e-09 -6.24477e-09 1.09774e-08)
(-1.95574e-08 1.40094e-07 2.9747e-08)
(-1.12387e-08 2.40008e-07 3.27006e-08)
(1.69151e-08 5.32241e-08 -2.57723e-09)
(4.51561e-09 -2.16224e-11 -3.59594e-09)
(1.69044e-10 1.69827e-10 -1.01268e-10)
(-3.01098e-10 2.04637e-09 7.47525e-11)
(-1.08169e-10 1.08938e-09 -1.89322e-11)
(2.09267e-10 4.93163e-10 4.70243e-11)
(2.80357e-10 6.50337e-10 5.84501e-10)
(5.41413e-11 -6.67699e-10 -7.74001e-13)
(1.67525e-12 -3.30088e-09 -2.21664e-09)
(7.55474e-11 -2.26968e-09 -2.01348e-09)
(9.91975e-10 -2.91734e-09 -1.08901e-10)
(2.81763e-09 -1.15815e-08 5.30627e-10)
(1.54659e-09 -8.40046e-09 5.04539e-09)
(-1.26638e-09 1.58114e-09 9.61994e-09)
(-1.4958e-09 5.10039e-09 1.3345e-08)
(-1.45109e-09 8.17222e-09 9.38007e-09)
(-1.76502e-09 1.06298e-08 3.66468e-09)
(-5.5808e-10 2.66503e-09 2.7543e-09)
(3.2483e-10 3.20831e-09 1.0269e-09)
(-5.63142e-10 4.3608e-09 -9.57454e-11)
(-3.46467e-10 2.65508e-11 -4.09082e-10)
(3.53489e-11 -5.78144e-11 -7.32003e-11)
(-7.75914e-11 -3.23413e-10 -3.89343e-10)
(2.46911e-10 -3.26327e-09 -1.54312e-09)
(8.76656e-10 -1.08287e-08 1.41541e-09)
(4.08362e-10 -2.57457e-09 2.38264e-09)
(6.13189e-09 -5.697e-09 1.01391e-09)
(2.22512e-09 -1.24142e-09 -8.3732e-10)
(-6.9656e-09 5.6547e-09 -1.697e-08)
(-7.81907e-09 1.60147e-09 -1.62634e-08)
(-2.0693e-08 -3.43145e-08 -7.06706e-09)
(-1.02218e-08 8.93832e-10 3.5277e-09)
(1.80667e-08 5.62244e-08 2.38299e-08)
(1.51593e-08 1.54946e-08 2.02211e-08)
(2.93149e-09 1.27608e-10 2.89563e-09)
(1.18074e-10 2.69257e-10 -3.80159e-09)
(1.65649e-09 -1.19887e-09 9.96068e-10)
(1.4676e-08 -3.90243e-09 -1.21031e-08)
(1.23687e-09 1.134e-08 -7.49513e-09)
(-1.54279e-08 1.17212e-07 2.47988e-08)
(-3.58373e-09 2.63292e-08 2.03343e-08)
(5.45801e-10 -1.91448e-09 8.52497e-09)
(4.01914e-10 -2.69596e-09 1.61589e-09)
(-1.39863e-10 8.04067e-10 -3.12492e-10)
(-2.07253e-10 5.60371e-10 -2.35513e-10)
(2.08299e-10 4.44637e-10 -3.9759e-11)
(6.6697e-11 4.09723e-10 2.66963e-10)
(-6.28662e-10 -4.15873e-09 -1.52853e-09)
(-2.36091e-10 -1.01875e-08 -7.86371e-09)
(6.56991e-10 -7.61068e-09 -1.10168e-08)
(5.95068e-10 -1.13059e-09 -3.55495e-09)
(1.62682e-09 -4.77662e-09 4.36401e-11)
(2.24797e-09 -9.98337e-09 1.83058e-09)
(4.8969e-10 -2.93048e-09 7.43901e-09)
(-6.6178e-10 3.77638e-09 1.31817e-08)
(-1.03818e-09 7.23599e-09 1.71485e-08)
(-1.93252e-09 7.63072e-09 1.38948e-08)
(-1.99493e-09 7.24365e-09 -2.84757e-10)
(9.2175e-11 -1.5745e-09 1.03681e-09)
(-4.31715e-10 2.14416e-09 -7.2186e-11)
(-7.48117e-10 -4.79172e-10 -3.14494e-10)
(-2.5328e-11 -1.8056e-10 -1.72304e-10)
(-2.25733e-10 -2.93767e-10 -5.81648e-12)
(-3.15662e-10 -1.91506e-09 -3.71906e-10)
(3.99683e-10 -4.72449e-09 -7.25871e-10)
(7.02814e-10 -4.20803e-09 8.54997e-09)
(5.87767e-09 -2.22754e-09 2.9718e-09)
(1.43359e-09 -7.69655e-09 2.06317e-09)
(-6.19276e-09 -4.42636e-09 -1.47792e-08)
(-1.04651e-08 2.15025e-09 -2.29629e-08)
(-1.5318e-08 -1.12235e-08 -8.57579e-09)
(1.5036e-09 4.47843e-08 8.52691e-09)
(1.43954e-08 4.89219e-08 2.23913e-08)
(7.19464e-09 9.75989e-09 1.35039e-08)
(1.1125e-09 1.97337e-11 2.64523e-09)
(5.87363e-10 -1.18656e-09 -7.75408e-10)
(1.43337e-09 1.67106e-10 1.39581e-09)
(7.81455e-09 -6.55695e-09 -2.11351e-09)
(5.23717e-09 -5.77551e-08 -1.2164e-08)
(-7.46807e-09 -3.35508e-09 8.73465e-09)
(-7.4677e-09 8.42049e-09 2.18575e-08)
(-1.53162e-09 -2.0799e-09 1.57564e-08)
(7.49865e-10 -4.36716e-09 3.94064e-09)
(4.06838e-10 -9.17252e-11 -2.97524e-10)
(-1.77872e-10 2.27857e-10 -2.1284e-10)
(1.75842e-10 2.84856e-10 -4.3137e-11)
(-7.21913e-10 -5.05764e-10 2.96565e-11)
(-2.23331e-09 -1.03878e-08 -2.93251e-09)
(-7.4185e-10 -2.10225e-08 -1.2947e-08)
(2.03073e-09 -1.51503e-08 -1.94215e-08)
(1.66388e-09 -2.94208e-09 -1.00655e-08)
(9.71121e-10 -8.52121e-10 -4.45154e-10)
(1.88462e-09 -5.48421e-09 4.13701e-11)
(1.61345e-09 -5.00468e-09 3.63541e-09)
(6.801e-10 -1.05067e-09 8.83066e-09)
(3.1235e-11 2.90006e-09 1.70414e-08)
(-6.8064e-10 -3.09908e-09 2.16394e-08)
(-2.67015e-09 3.97135e-09 4.50712e-09)
(-9.0369e-10 -1.46118e-09 3.83593e-10)
(-3.07721e-10 -8.02887e-10 3.22947e-13)
(-8.75829e-10 -1.73141e-11 -1.06024e-10)
(8.7192e-11 2.93845e-10 -2.049e-10)
(-4.88286e-10 2.70061e-10 -1.55473e-10)
(-7.83079e-10 7.43614e-10 -1.21391e-10)
(3.62912e-10 -1.49462e-09 -1.48767e-10)
(9.91162e-10 -2.36347e-09 3.12208e-09)
(5.30134e-09 -1.23243e-09 1.51041e-08)
(1.76716e-09 -9.78945e-09 1.10831e-09)
(-4.627e-09 6.41839e-09 -7.52789e-10)
(-9.21406e-09 2.69737e-09 -2.13225e-08)
(-1.07781e-08 2.38239e-08 -1.48149e-08)
(3.33545e-09 3.07816e-08 3.6612e-09)
(9.84417e-09 1.86591e-08 1.33596e-08)
(3.9735e-09 4.12268e-09 8.23105e-09)
(4.31366e-10 -8.79555e-12 2.80718e-09)
(1.05557e-10 -1.56234e-10 6.40519e-10)
(3.6043e-10 -2.263e-09 1.28445e-09)
(1.15994e-09 -5.61251e-09 4.21875e-09)
(1.60811e-09 -3.3537e-08 -1.75449e-09)
(1.525e-12 -2.59738e-08 -4.75284e-09)
(-2.86728e-09 7.0739e-10 9.29705e-09)
(-2.37977e-09 1.45422e-09 1.49994e-08)
(8.5418e-10 -9.57179e-10 4.7663e-09)
(9.32131e-10 -1.04152e-10 8.10142e-11)
(-1.17797e-10 -3.4281e-11 -5.67487e-11)
(3.1457e-11 -1.30896e-10 -3.33225e-12)
(-2.47314e-09 -5.87873e-10 -5.99529e-11)
(-5.50193e-09 -1.23895e-08 -3.27681e-09)
(-1.35348e-09 -3.32551e-08 -1.59427e-08)
(4.95576e-09 -2.79806e-08 -2.51108e-08)
(3.99642e-09 -6.32045e-09 -1.3969e-08)
(1.07043e-09 2.97898e-11 -1.2997e-09)
(1.26563e-09 -2.03584e-09 -1.50561e-10)
(1.46211e-09 -3.75368e-09 9.97058e-10)
(1.14069e-09 -4.42858e-09 3.90112e-09)
(9.8335e-10 -4.50521e-09 9.32237e-09)
(2.35925e-10 -8.78677e-09 1.78377e-08)
(-1.48073e-09 -4.86334e-09 1.22443e-08)
(-1.09897e-09 -5.14103e-10 5.2014e-12)
(-5.30842e-11 -2.43451e-09 -3.18365e-10)
(-4.37482e-10 1.82566e-09 -6.52328e-10)
(4.09123e-11 1.38634e-09 -8.7907e-10)
(-7.65222e-11 3.09383e-10 -3.16817e-10)
(-7.45626e-10 2.73979e-09 -2.77066e-10)
(-4.3898e-10 2.74933e-09 9.43963e-11)
(7.4397e-10 -1.21105e-09 9.86397e-10)
(3.92396e-09 -5.08093e-10 1.16083e-08)
(3.47346e-09 -1.04828e-08 1.19537e-08)
(-2.96953e-09 1.35016e-08 3.41162e-10)
(-5.87553e-09 -1.46701e-09 -8.17675e-09)
(-8.17431e-09 2.83954e-08 -2.59934e-08)
(-8.699e-11 2.14333e-08 -1.06525e-08)
(7.63938e-09 1.18576e-08 3.09497e-09)
(2.46726e-09 1.79372e-12 4.42339e-09)
(2.29873e-11 -4.50498e-10 3.44687e-09)
(2.61571e-11 -4.98185e-10 3.09344e-09)
(6.53011e-11 8.41634e-10 1.39237e-09)
(2.5518e-11 1.89627e-09 2.06492e-09)
(9.29915e-11 -2.6815e-09 1.47459e-09)
(1.04177e-09 -7.09324e-09 -5.31771e-09)
(-5.08238e-10 -8.11677e-10 -6.86332e-10)
(-1.89492e-09 6.61905e-09 3.83651e-09)
(3.16487e-10 4.04019e-09 2.60424e-09)
(6.02548e-10 1.68599e-10 1.67633e-10)
(-1.9136e-10 -3.67053e-10 -2.12152e-11)
(4.07255e-11 -8.40935e-10 5.47815e-11)
(-3.86401e-09 4.45013e-10 -3.92686e-11)
(-1.07516e-08 -1.38646e-09 -2.22894e-09)
(-4.90584e-09 -2.91039e-08 -1.53942e-08)
(9.03036e-09 -4.84973e-08 -3.10917e-08)
(9.01669e-09 -1.91583e-08 -1.95432e-08)
(2.12257e-09 -2.4851e-10 -2.40237e-09)
(9.23002e-10 -1.04107e-09 -2.56468e-10)
(9.8038e-10 -1.65753e-09 -1.11368e-11)
(4.2851e-10 -2.73059e-09 1.69029e-09)
(2.92885e-10 -4.83921e-09 3.36783e-09)
(-7.83013e-10 -3.22284e-09 8.88495e-09)
(-3.17643e-10 -6.60651e-09 1.10846e-08)
(-1.56476e-10 -3.77821e-10 1.49312e-10)
(3.66129e-10 -1.64936e-09 -9.40048e-10)
(2.22231e-10 7.05626e-10 -4.88876e-10)
(-3.61821e-10 9.84052e-10 -1.08278e-09)
(-1.25947e-10 9.44444e-10 -5.56389e-10)
(-5.67003e-11 1.14089e-10 -1.30724e-10)
(-7.36315e-10 2.62924e-09 8.62283e-11)
(4.18894e-11 -4.71024e-10 8.28243e-10)
(2.66932e-09 -6.50146e-10 8.93628e-09)
(5.78308e-09 -9.64183e-09 1.6625e-08)
(-2.10066e-09 8.53234e-09 7.17007e-10)
(-5.10299e-09 1.53963e-09 8.52705e-10)
(-4.19443e-09 1.22056e-08 -2.73444e-08)
(-1.25896e-09 2.24977e-08 -1.81433e-08)
(3.65868e-09 7.78576e-09 -1.08852e-09)
(4.4609e-10 -8.2133e-09 4.03732e-11)
(3.24119e-10 -2.24514e-09 1.59562e-09)
(5.00531e-10 -2.86734e-09 4.05725e-09)
(1.10772e-09 2.24488e-09 2.62559e-09)
(2.23249e-10 1.05982e-08 1.75242e-10)
(-9.2513e-10 3.07675e-09 1.0411e-10)
(4.53165e-10 -4.2156e-10 -1.7198e-09)
(9.91865e-10 9.78343e-10 -1.05641e-08)
(-9.77959e-10 7.34858e-09 -8.43171e-09)
(-1.0206e-09 3.57579e-09 -6.40626e-10)
(-3.52729e-10 9.80465e-11 8.8305e-12)
(-4.1231e-10 -5.25055e-10 -2.0124e-10)
(2.73544e-10 -1.27631e-09 1.57547e-10)
(-2.49203e-09 -1.47033e-10 8.47995e-12)
(-1.38008e-08 1.15297e-08 1.25318e-09)
(-1.50848e-08 6.96448e-09 -3.14565e-09)
(7.50945e-09 -5.01417e-08 -2.76379e-08)
(1.79159e-08 -5.10386e-08 -3.04011e-08)
(6.38363e-09 -6.50238e-09 -6.75e-09)
(8.79486e-10 -6.71611e-10 -4.13982e-10)
(1.00645e-09 -1.37254e-09 -7.65216e-10)
(2.6235e-10 -4.51655e-10 8.67859e-10)
(-7.57565e-10 -5.75655e-10 2.68928e-09)
(-1.6507e-09 9.52764e-10 5.15898e-09)
(-6.61567e-10 -8.39062e-10 4.3414e-09)
(4.40877e-10 -8.20918e-11 3.5886e-10)
(2.61332e-10 -2.16202e-10 -8.32955e-10)
(3.64024e-10 -1.08042e-09 -1.76553e-10)
(1.61619e-10 -5.26338e-10 -2.44465e-10)
(-3.58799e-10 1.54697e-09 -2.36452e-10)
(-2.60544e-10 3.71873e-10 -8.47024e-12)
(-6.01415e-10 1.65778e-10 1.09546e-10)
(-2.66548e-10 9.03071e-10 1.35028e-10)
(1.02447e-09 -1.11962e-09 6.77037e-09)
(6.26729e-09 -6.38197e-09 1.81546e-08)
(6.34266e-10 -1.02013e-08 2.82867e-09)
(-4.74219e-09 5.36583e-09 3.03621e-09)
(-1.66359e-09 -1.43539e-09 -1.43569e-08)
(-1.42551e-09 1.23866e-08 -1.32757e-08)
(-2.09331e-09 -8.46608e-10 1.95478e-10)
(-6.36806e-10 -9.2648e-09 -1.71512e-09)
(1.75786e-09 -2.52073e-09 -1.81991e-09)
(1.46027e-09 -2.16196e-09 1.82976e-09)
(4.40565e-09 -3.02574e-09 -7.53945e-10)
(2.79815e-10 2.21469e-08 -3.37853e-10)
(-3.44188e-09 1.30143e-08 -3.79199e-10)
(4.0963e-10 2.517e-10 -1.03747e-09)
(1.90304e-09 1.15038e-09 -1.31557e-08)
(-1.132e-09 1.67091e-09 -1.19038e-08)
(-1.94005e-09 1.70957e-10 -1.68071e-09)
(-6.5307e-10 -1.20638e-11 -1.24972e-10)
(-6.22465e-10 1.48349e-10 5.0133e-11)
(1.41442e-10 -4.7602e-10 6.09991e-10)
(2.24272e-10 -1.57446e-09 1.29795e-11)
(-8.08568e-09 8.02549e-09 1.99277e-09)
(-2.42234e-08 3.57523e-08 1.2613e-08)
(-9.9741e-09 -1.81412e-09 2.12228e-09)
(2.25098e-08 -7.54791e-08 -3.24801e-08)
(1.83199e-08 -3.24883e-08 -1.89588e-08)
(2.62226e-09 -5.62226e-11 -1.24313e-09)
(1.05034e-09 -2.05523e-09 -1.16815e-09)
(7.09025e-10 -5.28461e-10 -2.32178e-10)
(-5.13575e-10 -1.58073e-10 2.93638e-09)
(-9.41268e-10 1.22642e-10 3.85869e-09)
(-6.59315e-10 1.99806e-09 1.51928e-09)
(8.6455e-12 6.71358e-10 8.13728e-11)
(1.2955e-11 2.09708e-10 6.76305e-12)
(9.44155e-11 -3.47784e-10 -1.5273e-11)
(5.41955e-10 -9.46193e-10 -6.26686e-13)
(2.25772e-10 -7.09318e-10 -2.18235e-11)
(-5.39212e-10 2.98676e-10 -1.02059e-10)
(-5.56611e-10 -1.07112e-10 -2.41658e-11)
(-3.94829e-10 1.59415e-09 1.26331e-11)
(1.83475e-10 8.19731e-10 3.05699e-09)
(2.42103e-09 -4.07188e-10 1.45191e-08)
(1.89943e-09 -1.56704e-08 5.11546e-09)
(-1.94381e-09 1.35283e-09 1.04957e-09)
(-1.89692e-09 -2.06214e-09 -3.79989e-09)
(-1.02696e-09 1.76258e-09 -4.89445e-09)
(-3.6397e-09 -1.26979e-09 1.63191e-09)
(-5.1985e-11 4.56184e-09 -1.98945e-09)
(2.76543e-09 1.14092e-09 -1.98515e-09)
(2.1674e-10 1.93689e-09 2.47395e-11)
(9.62995e-09 -6.65852e-09 -1.14475e-09)
(6.06661e-09 -3.81638e-09 -3.57254e-09)
(-8.64828e-09 1.18304e-08 -5.27341e-09)
(-3.86867e-09 1.27538e-09 9.38542e-10)
(1.41481e-09 -1.19815e-09 -8.18208e-09)
(-1.31913e-09 -2.10703e-09 -8.5801e-09)
(-1.53887e-09 -3.64946e-10 -1.61916e-09)
(-3.29794e-10 3.51799e-11 -8.08737e-10)
(-5.59682e-10 1.11707e-09 1.46469e-10)
(-3.4099e-10 2.67449e-09 5.1614e-10)
(3.26185e-10 1.55894e-09 -1.34078e-10)
(-7.82415e-10 -3.78994e-10 6.71648e-10)
(-1.77243e-08 2.21912e-08 9.9323e-09)
(-3.12377e-08 4.7121e-08 2.99214e-08)
(6.25325e-09 -3.74006e-08 -1.8753e-09)
(3.26485e-08 -7.10237e-08 -3.06644e-08)
(1.17964e-08 -1.21326e-08 -7.85386e-09)
(8.29689e-10 -1.15628e-09 -3.16672e-10)
(9.07803e-10 -1.75415e-09 -1.28193e-09)
(-2.42745e-10 -9.09763e-10 1.38864e-09)
(-5.53882e-10 -2.28611e-10 2.51249e-09)
(-4.4093e-10 4.24629e-10 1.28707e-09)
(-2.34103e-10 7.85544e-11 -6.81442e-11)
(-1.2311e-10 -9.09733e-11 -5.61652e-11)
(-7.32622e-11 5.52137e-11 2.39317e-12)
(-2.33902e-11 1.05883e-10 8.69921e-11)
(8.16012e-11 -1.1113e-09 2.7942e-12)
(1.07857e-11 -9.2475e-10 -3.03494e-10)
(-8.46109e-11 -1.5742e-11 -3.99369e-10)
(1.19844e-10 4.37869e-10 -6.83779e-11)
(3.062e-10 1.45338e-09 7.29173e-10)
(2.8967e-11 1.34273e-09 6.8872e-09)
(1.21137e-09 -4.97939e-09 4.11449e-09)
(4.44899e-10 -2.04224e-09 2.91285e-10)
(-1.47444e-09 1.62169e-09 -8.24074e-10)
(-1.14795e-09 -4.98294e-11 -1.19882e-09)
(-8.06009e-10 2.21428e-09 9.99108e-10)
(2.72846e-10 8.79297e-09 -5.92785e-10)
(5.9666e-10 2.20922e-09 -1.34981e-10)
(-1.55008e-09 2.08223e-09 -1.50481e-10)
(1.54749e-09 5.37455e-10 -2.05342e-10)
(7.12125e-09 -2.55661e-08 2.48742e-09)
(-8.51835e-10 -1.49264e-08 -2.31046e-09)
(-4.39049e-09 -4.64493e-10 -1.01419e-09)
(5.92225e-10 -4.28117e-09 -1.79048e-09)
(-7.77187e-10 -5.18074e-09 -5.99043e-09)
(-1.11941e-09 8.33996e-10 -6.68905e-09)
(-9.00875e-11 3.06865e-10 -2.70357e-09)
(4.33397e-10 1.18389e-09 -8.1627e-11)
(3.6939e-10 4.67589e-09 -2.622e-12)
(-1.0154e-09 5.82284e-09 1.48315e-09)
(-5.38934e-10 1.8027e-09 1.95782e-09)
(-5.77829e-09 1.71724e-09 2.98214e-09)
(-3.17536e-08 4.20513e-08 2.33576e-08)
(-2.33583e-08 3.79978e-08 3.54851e-08)
(2.70032e-08 -5.61424e-08 -1.47971e-08)
(2.9793e-08 -4.27344e-08 -2.01838e-08)
(5.25081e-09 -4.28388e-09 -1.85038e-09)
(7.87618e-10 -2.12459e-09 -6.84563e-10)
(2.13759e-10 -1.5018e-09 -2.046e-11)
(-1.25555e-10 -7.15938e-10 4.89072e-10)
(-5.4551e-10 -3.39555e-10 1.98251e-10)
(-1.95241e-10 -3.69583e-10 -7.15774e-10)
(1.67099e-11 -9.61514e-12 -2.2812e-10)
(1.99288e-10 -8.77453e-11 6.56034e-11)
(8.23526e-11 6.81239e-10 5.52499e-10)
(-2.1718e-10 3.48303e-10 7.05883e-10)
(-1.09543e-10 -4.2927e-10 8.65265e-11)
(-1.87167e-13 -8.77596e-11 1.95673e-10)
(2.04485e-10 -1.53631e-11 -2.63258e-11)
(5.72771e-10 -2.19822e-10 7.05817e-10)
(-1.88779e-10 8.38251e-11 3.71799e-09)
(4.66885e-10 -3.67045e-10 2.51401e-09)
(7.41124e-10 -2.58429e-09 -5.42099e-10)
(-1.05554e-09 -1.08776e-09 -3.35307e-11)
(-7.51107e-10 -1.56329e-10 -2.66024e-09)
(-4.93535e-12 9.86335e-10 3.78262e-10)
(-8.79564e-11 1.40576e-09 2.45811e-09)
(8.9371e-12 -5.2119e-10 9.5503e-10)
(-3.42619e-10 2.75573e-10 7.24802e-12)
(-1.81538e-09 3.86559e-09 1.35151e-10)
(-9.13603e-10 -6.30965e-09 1.37396e-09)
(1.69521e-09 -1.847e-08 2.32853e-09)
(9.15277e-10 -2.3464e-09 -2.99431e-10)
(-5.95269e-10 -3.28656e-09 -7.366e-10)
(8.97321e-10 -3.56247e-09 -6.80518e-09)
(8.5578e-10 1.0076e-09 -6.57328e-09)
(-1.99218e-10 1.32041e-10 -1.00791e-09)
(1.27842e-09 8.6554e-11 2.88685e-11)
(1.64639e-09 -1.86585e-10 3.42982e-10)
(-8.11125e-10 4.91177e-10 2.60861e-09)
(-2.63185e-09 4.5393e-09 3.17527e-09)
(-1.08159e-09 3.84907e-09 -4.38184e-10)
(-1.50643e-08 1.41792e-08 5.95542e-09)
(-3.4301e-08 6.45186e-08 3.36225e-08)
(-2.63545e-09 2.15656e-08 1.93456e-08)
(3.29694e-08 -4.33802e-08 -1.80264e-08)
(1.8414e-08 -1.76464e-08 -7.77025e-09)
(2.15639e-09 -1.48423e-09 -5.88868e-11)
(5.52265e-10 -2.07398e-09 -6.8215e-10)
(2.52272e-10 -1.07113e-09 -1.81637e-09)
(-2.6021e-10 -1.70217e-10 -2.69906e-09)
(-7.63235e-11 1.27624e-09 -1.69469e-09)
(5.9785e-13 1.14537e-09 -2.02059e-10)
(2.37262e-10 1.0721e-11 -7.56442e-11)
(1.79485e-10 -8.28457e-11 3.77624e-10)
(-4.32013e-10 -1.41884e-09 9.78339e-10)
(-1.90582e-10 -3.35569e-09 6.69763e-11)
(1.09619e-10 -1.26702e-09 -2.69436e-10)
(4.62897e-11 -1.5833e-11 5.34685e-11)
(3.27171e-10 -3.51955e-10 5.71441e-10)
(-2.0631e-11 -1.10217e-09 2.02842e-09)
(-1.9875e-11 1.93895e-10 -7.79722e-10)
(6.06818e-11 -1.74062e-09 -1.44471e-09)
(-3.27168e-10 -1.3336e-09 -8.77391e-10)
(-1.71934e-10 -2.62074e-10 -6.20323e-09)
(-1.23072e-10 -6.11808e-11 1.85455e-09)
(-4.29039e-10 -1.9511e-09 4.5181e-09)
(1.03393e-10 -2.43799e-09 3.31414e-10)
(4.75993e-10 -3.68348e-10 3.62156e-11)
(-1.33302e-09 8.71883e-10 -6.38955e-11)
(-2.99875e-09 3.26781e-09 -4.50905e-10)
(8.2746e-10 7.89213e-10 -1.14048e-09)
(2.50516e-09 -4.02689e-10 -4.50586e-10)
(1.19098e-10 8.01343e-10 -8.42068e-10)
(1.15498e-09 1.48517e-09 -4.10545e-09)
(4.87454e-10 -7.13777e-10 -1.87676e-09)
(-5.3047e-10 -2.41135e-10 7.66622e-10)
(1.89407e-10 -6.76033e-10 1.55184e-10)
(4.35261e-10 -3.15912e-09 7.43841e-11)
(1.28113e-09 -4.41841e-09 7.17548e-10)
(1.32517e-09 3.66251e-10 1.06969e-09)
(-1.53814e-09 1.89188e-08 2.40838e-09)
(-3.73179e-09 1.33997e-08 1.18738e-09)
(-1.85997e-08 3.19864e-08 9.66032e-09)
(-2.28371e-08 6.37185e-08 2.9967e-08)
(1.02323e-08 1.13195e-08 5.9046e-09)
(2.44315e-08 -1.55367e-08 -8.34822e-09)
(8.28279e-09 -3.59564e-09 -1.45967e-09)
(5.55412e-10 -7.98328e-10 -2.81548e-10)
(1.75247e-10 -1.62388e-09 -6.48109e-10)
(6.95612e-10 2.75228e-10 -9.27404e-10)
(5.04605e-10 3.95689e-09 2.98171e-10)
(-6.66701e-10 2.53413e-09 -4.47713e-11)
(-4.69547e-10 7.8908e-11 -1.01353e-09)
(-7.01619e-10 -4.32211e-10 2.04656e-10)
(-1.96662e-09 -1.31615e-09 1.03871e-09)
(-1.8945e-11 -1.85799e-09 3.18061e-09)
(1.79644e-09 -1.11558e-09 1.09019e-09)
(7.16276e-10 1.54822e-11 1.49857e-10)
(1.01803e-11 2.76667e-10 1.16961e-10)
(8.92606e-11 1.02518e-09 1.19198e-09)
(1.71793e-10 3.43996e-10 -1.78512e-09)
(-1.51415e-11 -4.14283e-10 -3.345e-11)
(-3.30747e-10 -6.26929e-11 -1.00436e-09)
(-1.22413e-10 -1.08697e-10 -8.4483e-10)
(-9.07023e-10 1.36702e-10 4.18401e-09)
(-1.33923e-09 -4.00576e-10 1.58407e-09)
(8.55953e-10 5.53435e-11 -7.70548e-10)
(1.36419e-09 -2.32038e-10 1.08412e-11)
(1.02969e-10 1.38886e-10 -3.81404e-10)
(-7.4189e-10 2.53604e-09 -2.45464e-09)
(-2.01717e-10 5.52026e-09 -4.62948e-09)
(7.56792e-10 1.10796e-09 -2.74703e-09)