/*--------------------------------*- C++ -*----------------------------------*\
| =========                 |                                                 |
| \\      /  F ield         | OpenFOAM: The Open Source CFD Toolbox           |
|  \\    /   O peration     | Version:  5.0                                   |
|   \\  /    A nd           | Web:      www.OpenFOAM.org                      |
|    \\/     M anipulation  |                                                 |
\*---------------------------------------------------------------------------*/
FoamFile
{
    version     2.0;
    format      ascii;
    class       volVectorField;
    location    "50.4676134421789371";
    object      VV2;
}
// * * * * * * * * * * * * * * * * * * * * * * * * * * * * * * * * * * * * * //

dimensions      [0 2 -3 0 0 0 0];

internalField   nonuniform List<vector> 
60000
(
(-1.16955e-12 -1.57956e-09 2.52398e-12)
(5.63805e-12 -5.68629e-10 2.55731e-13)
(7.35203e-12 -4.59315e-11 6.23286e-14)
(2.69381e-12 1.99233e-11 -4.05949e-13)
(7.45535e-13 2.83246e-10 -3.96094e-13)
(3.4071e-13 2.24382e-10 -4.06371e-13)
(-5.26047e-13 -4.28582e-11 3.68457e-13)
(-5.51532e-13 -3.11758e-12 8.79629e-13)
(-2.20792e-13 8.40186e-12 5.35126e-12)
(-1.34281e-12 -5.0777e-10 1.60797e-11)
(-1.79582e-12 -1.40104e-09 2.84501e-11)
(7.477e-13 -9.1685e-10 2.25588e-11)
(1.70733e-12 -7.89303e-11 6.10837e-12)
(5.09171e-13 6.90385e-12 1.50295e-12)
(-1.41398e-12 1.29007e-10 -7.24879e-13)
(-3.27225e-13 4.23039e-10 -1.42801e-12)
(1.06784e-11 1.24207e-09 -1.42603e-12)
(2.7603e-11 1.87638e-09 1.6553e-13)
(2.16649e-11 1.11553e-09 -5.86662e-12)
(-1.18457e-11 -4.24771e-10 -4.00235e-12)
(-2.97909e-11 4.01968e-11 3.25141e-11)
(-1.62841e-11 -6.38525e-10 1.73834e-11)
(-3.62518e-12 -5.24854e-10 7.17222e-12)
(9.35042e-12 3.32004e-09 -1.67749e-11)
(1.50446e-11 4.09231e-09 -6.51829e-11)
(-1.82835e-12 1.82758e-09 -1.29264e-10)
(-1.78538e-11 5.85702e-10 -1.25309e-10)
(-1.5e-11 1.35585e-10 -7.22909e-11)
(4.28519e-12 -1.77988e-10 -2.11022e-11)
(7.09202e-12 -3.91909e-11 -1.03717e-12)
(-1.01994e-11 -5.84157e-11 1.36085e-13)
(-2.57405e-11 -2.76783e-10 -2.06544e-13)
(-2.66024e-11 -1.52919e-09 -3.67056e-12)
(-9.0305e-13 -2.81056e-09 4.425e-13)
(4.05968e-11 -2.90594e-09 1.4469e-11)
(2.7537e-11 -4.09464e-10 1.13207e-11)
(-3.48162e-12 4.70784e-11 3.0591e-12)
(-3.80806e-12 6.21118e-11 7.81239e-13)
(-5.39518e-12 -9.7537e-10 2.59207e-12)
(-3.88067e-12 -1.97641e-09 3.82725e-12)
(1.43454e-10 -2.68539e-09 -1.2052e-11)
(1.48647e-10 -1.04238e-09 9.34185e-12)
(5.13186e-11 3.31537e-13 -2.47709e-13)
(3.0268e-11 3.32546e-11 5.55398e-13)
(1.9824e-11 3.6256e-10 -7.96362e-13)
(-3.33072e-11 6.4997e-10 1.81269e-12)
(-2.2393e-11 5.54026e-11 9.20515e-12)
(5.7852e-12 -4.64507e-11 2.30611e-11)
(-5.07177e-11 5.56926e-11 5.39429e-11)
(-1.40847e-10 -6.60023e-10 7.7608e-11)
(-3.9328e-11 -2.8705e-09 1.51831e-10)
(1.32685e-10 -2.72936e-09 3.11417e-10)
(9.13991e-11 -4.7237e-10 2.06494e-10)
(2.04361e-11 3.04307e-12 6.27214e-11)
(4.35834e-11 3.24762e-10 3.77585e-11)
(1.12762e-10 1.69605e-09 6.31019e-11)
(1.34977e-10 3.77665e-09 1.63445e-10)
(-4.32475e-11 4.1814e-09 1.01322e-10)
(-2.56292e-10 1.11482e-09 4.8581e-11)
(-9.5515e-11 -2.48971e-09 2.1329e-10)
(1.1298e-11 -2.30112e-10 3.00477e-10)
(-3.9086e-11 -7.44039e-09 5.18575e-10)
(4.0375e-10 -4.78236e-09 -8.70711e-11)
(4.55934e-10 1.50013e-08 -2.50693e-10)
(-1.6732e-10 1.16601e-08 1.64968e-11)
(-3.5209e-10 1.91379e-09 -2.92099e-10)
(-1.51155e-10 -2.54913e-12 -5.33758e-10)
(-6.05627e-11 1.09639e-10 -2.64229e-10)
(-2.23795e-11 6.95285e-11 -1.69861e-11)
(4.24654e-12 4.84085e-12 1.01365e-11)
(-1.27345e-11 -3.2492e-11 2.0097e-11)
(-1.2011e-10 2.23597e-10 1.01928e-10)
(-2.26505e-10 1.57831e-10 1.67013e-10)
(-1.38033e-10 -9.13562e-10 2.0222e-10)
(1.97659e-10 -1.98676e-09 2.41789e-10)
(2.6781e-10 -1.10935e-09 9.08415e-11)
(5.14643e-11 1.24112e-10 8.33228e-12)
(-9.90467e-11 9.86162e-11 6.42435e-13)
(-1.99902e-10 4.02659e-10 -1.22912e-11)
(-5.6729e-11 -1.58963e-09 -3.1799e-11)
(4.48165e-11 -3.12888e-09 -1.77257e-10)
(2.9016e-10 -2.28639e-09 -1.22461e-11)
(1.22685e-10 -8.34667e-11 5.73941e-12)
(4.02076e-11 2.97059e-11 6.87847e-12)
(6.75082e-11 1.23579e-10 1.17768e-11)
(-3.0404e-11 5.79614e-10 3.22928e-12)
(-7.58837e-11 5.34996e-10 9.02582e-12)
(-1.17705e-12 -1.76552e-10 2.25329e-11)
(-6.33713e-11 4.10714e-12 7.38292e-13)
(-3.13033e-10 4.12872e-10 -9.90585e-11)
(-2.28561e-10 -2.65958e-09 -1.89952e-10)
(2.54362e-10 -4.3992e-09 1.85331e-10)
(2.96967e-10 -1.1437e-09 3.28397e-10)
(8.72941e-11 -7.85909e-12 6.20544e-11)
(1.82629e-10 5.10977e-10 1.46663e-11)
(3.72702e-10 2.72674e-09 4.68453e-11)
(2.74808e-10 4.8182e-09 1.5013e-10)
(-2.61747e-10 4.16908e-09 3.19283e-10)
(-6.93085e-10 9.34289e-10 1.88197e-11)
(-1.53075e-10 -3.13415e-09 5.53759e-10)
(-5.85893e-10 4.19844e-12 7.02817e-10)
(-5.2134e-10 -1.78311e-08 6.8421e-10)
(2.45559e-09 -9.91322e-09 -7.74283e-10)
(1.79577e-09 3.29663e-08 -8.90141e-10)
(-1.42485e-09 1.73413e-08 1.14888e-09)
(-1.26546e-09 -1.1664e-10 3.87597e-10)
(-2.05118e-10 2.44021e-10 -4.92218e-10)
(-2.23567e-12 2.1605e-11 -2.23264e-10)
(-4.6281e-12 -6.59e-10 9.82178e-12)
(-3.98447e-12 -4.38265e-10 7.23526e-12)
(1.44478e-11 -2.0858e-10 7.0296e-11)
(5.27097e-12 1.22506e-10 1.7278e-10)
(-1.32605e-10 1.32805e-09 2.26999e-10)
(-2.25717e-10 1.5421e-09 2.72078e-10)
(2.468e-12 2.95676e-11 2.81738e-10)
(2.37885e-10 -1.45136e-09 7.50143e-11)
(1.25462e-10 -6.04376e-11 -7.17959e-11)
(3.71277e-11 -5.17461e-11 -6.58239e-12)
(-1.73386e-10 1.58348e-09 -1.81098e-11)
(-3.42608e-10 1.27069e-09 -1.32164e-10)
(-2.83964e-10 -3.19169e-09 -3.98052e-10)
(5.08658e-10 -7.51481e-09 2.91143e-11)
(3.28879e-10 -1.08568e-09 8.16532e-11)
(5.47107e-11 -1.68182e-11 3.56247e-12)
(8.25335e-11 3.43586e-11 2.6986e-11)
(1.70115e-11 6.0493e-11 1.41213e-11)
(-1.09877e-10 7.46007e-10 6.14813e-12)
(-5.88117e-11 -1.28087e-10 2.96246e-11)
(2.31177e-11 -4.83507e-11 -7.03772e-11)
(-4.50708e-10 1.04626e-09 -1.30364e-10)
(-6.11753e-10 -2.04306e-09 -4.33221e-10)
(3.06565e-10 -9.98244e-09 1.22045e-10)
(6.10362e-10 -4.47148e-09 5.38232e-10)
(2.17084e-10 -5.16802e-11 9.29114e-11)
(3.65609e-10 5.73244e-10 2.40822e-10)
(6.1573e-10 4.44933e-09 4.02335e-10)
(2.97924e-10 6.74931e-09 -2.21679e-11)
(-4.98434e-10 3.90407e-09 1.61445e-10)
(-1.10953e-09 8.0206e-10 1.84735e-10)
(-2.03976e-10 -5.20825e-09 4.34495e-10)
(-1.73499e-09 -9.49383e-10 -9.87225e-11)
(-1.20924e-09 -1.97535e-08 -1.77226e-09)
(6.44078e-09 -1.81473e-08 -2.19841e-09)
(3.67019e-09 5.72269e-08 -1.72099e-09)
(-4.10725e-09 2.99796e-08 3.63718e-09)
(-2.36089e-09 5.36791e-10 1.0273e-09)
(-1.28544e-10 1.30117e-09 -8.5519e-10)
(-1.77724e-10 1.04366e-10 -2.72964e-10)
(-8.08041e-11 -2.11375e-09 1.39408e-10)
(6.052e-11 -1.64078e-09 1.44212e-10)
(5.344e-11 -6.60356e-10 2.49748e-10)
(5.59378e-11 -3.31554e-10 3.75166e-10)
(-6.15885e-11 6.90842e-11 2.84711e-10)
(-2.88693e-10 8.03629e-10 9.78083e-11)
(-1.50388e-10 -3.91196e-10 8.0115e-12)
(2.59842e-10 -2.90036e-09 -6.8139e-11)
(2.15989e-10 -8.11552e-10 -1.26329e-10)
(8.90818e-11 2.31109e-10 -1.02202e-13)
(-3.99438e-11 -2.24601e-10 -3.65948e-11)
(-6.06852e-10 2.0239e-09 -1.97082e-10)
(-1.21652e-09 2.33953e-09 -7.46118e-10)
(5.53497e-10 -9.43445e-09 -1.1539e-10)
(1.11959e-09 -5.36375e-09 3.57775e-10)
(1.90816e-10 -8.85488e-11 1.46918e-11)
(7.64481e-11 -1.74101e-10 3.46562e-11)
(6.13236e-11 -2.74377e-10 4.26296e-11)
(-9.7966e-11 1.85006e-10 -1.21311e-13)
(-1.03077e-10 4.21133e-10 3.96337e-11)
(8.71401e-11 7.50452e-11 -2.51063e-10)
(-5.69644e-10 1.53437e-10 -2.09053e-10)
(-1.6866e-09 1.06528e-09 -7.6954e-10)
(-8.0865e-11 -1.60176e-08 -7.53907e-11)
(1.61314e-09 -1.49947e-08 1.88919e-09)
(7.58951e-10 -1.15702e-09 7.17544e-10)
(7.74921e-10 -1.30478e-11 7.74617e-10)
(1.18625e-09 8.08913e-09 1.43212e-09)
(1.98355e-10 1.30671e-08 -3.46124e-10)
(-1.04488e-09 4.18643e-09 -5.11626e-10)
(-1.88741e-09 3.06227e-10 7.09489e-10)
(-3.85657e-10 -3.47998e-09 2.65155e-10)
(-2.442e-09 -4.56472e-09 1.0684e-09)
(-2.78559e-09 -8.52307e-09 -7.06926e-09)
(1.24967e-08 -3.22495e-08 -4.92837e-09)
(8.13736e-09 7.33237e-08 -4.28359e-09)
(-8.84555e-09 4.78126e-08 9.28498e-09)
(-5.0466e-09 2.81094e-09 3.95211e-09)
(-2.71796e-10 6.77726e-10 -8.2004e-10)
(-4.47803e-10 3.10233e-10 -3.24322e-10)
(-2.33731e-10 -1.01175e-09 4.39891e-10)
(1.86707e-10 -1.31447e-09 7.03523e-10)
(1.88208e-10 -6.85477e-10 4.56532e-10)
(9.90774e-11 -2.83183e-10 4.34304e-10)
(1.41932e-11 -2.53772e-10 2.75705e-10)
(-2.81691e-10 4.2086e-10 -4.08455e-11)
(-4.84707e-10 1.0859e-09 -4.45746e-10)
(1.78517e-10 -1.79751e-09 -5.69654e-10)
(5.41353e-10 -2.16669e-09 -3.89172e-10)
(1.11449e-10 9.92508e-10 -6.07843e-11)
(5.62427e-11 -1.71239e-10 4.71236e-12)
(-7.1814e-10 5.12747e-10 -9.89198e-11)
(-1.67834e-09 4.70884e-09 -7.90006e-10)
(-6.50799e-10 2.23551e-09 -1.11873e-09)
(1.64784e-09 -7.48023e-09 3.47833e-10)
(8.18563e-10 -8.07169e-10 1.17572e-10)
(5.53076e-11 -2.62766e-10 1.40548e-11)
(6.62453e-11 -4.06273e-10 8.49423e-11)
(-6.8496e-12 -4.44782e-10 3.86283e-11)
(-7.07006e-11 5.90806e-10 -1.14398e-11)
(-2.36591e-11 4.55286e-10 -3.95962e-10)
(-2.89914e-10 -4.07625e-10 -8.13457e-10)
(-2.92438e-09 3.25467e-09 -6.7911e-10)
(-2.06077e-09 -9.79934e-09 -1.00441e-09)
(2.73402e-09 -2.45702e-08 3.94578e-09)
(2.40674e-09 -4.43727e-09 3.53336e-09)
(1.70921e-09 -7.10765e-10 1.72223e-09)
(2.51736e-09 1.35659e-08 3.31826e-09)
(-2.76795e-10 2.4857e-08 -1.09206e-09)
(-2.3547e-09 4.19369e-09 -2.49658e-09)
(-2.17804e-09 -1.05745e-09 1.17857e-09)
(-9.15322e-10 3.55175e-09 -1.84673e-11)
(-2.41761e-09 -5.15932e-09 3.57368e-09)
(-5.19584e-09 7.71426e-09 -9.12837e-09)
(1.80818e-08 -3.08858e-08 -9.04663e-09)
(1.52086e-08 5.39916e-08 -9.89792e-09)
(-1.41859e-08 3.99905e-08 1.64246e-08)
(-9.14809e-09 2.57626e-09 9.70665e-09)
(-4.88554e-10 -3.63741e-10 1.05278e-11)
(-4.02957e-10 3.79426e-10 -2.88898e-10)
(-3.08488e-10 9.4209e-10 3.93667e-10)
(9.6332e-11 3.46605e-10 1.21291e-09)
(1.9405e-10 5.93486e-11 9.40945e-10)
(1.16176e-10 3.8691e-11 3.0637e-10)
(3.60877e-11 -8.61547e-11 1.15937e-10)
(-8.85889e-11 5.98974e-11 -6.94297e-11)
(-4.48238e-10 1.52299e-09 -5.36877e-10)
(-2.19312e-10 1.77534e-09 -1.27096e-09)
(6.00465e-10 -1.38022e-09 -9.75476e-10)
(3.85899e-10 5.38637e-10 -2.35804e-10)
(-1.21851e-10 1.90162e-09 1.16808e-10)
(-2.18907e-10 6.80709e-12 1.39573e-12)
(-7.99783e-10 1.35355e-09 -3.11064e-10)
(-1.33845e-09 9.36382e-09 -2.14898e-09)
(5.61271e-10 4.83881e-10 -2.69075e-10)
(1.31994e-09 -1.09468e-09 1.18152e-10)
(1.4498e-10 -8.95355e-12 1.41545e-12)
(3.0694e-11 -2.82852e-10 7.10933e-11)
(5.75647e-11 -4.74432e-10 1.21059e-10)
(4.24994e-11 -1.31369e-10 1.09252e-11)
(-6.65711e-11 4.41335e-10 -3.29697e-10)
(-1.35461e-10 4.86725e-11 -1.57364e-09)
(-3.11218e-09 1.53383e-09 -1.11116e-09)
(-4.47959e-09 3.87711e-09 -1.30418e-09)
(2.38406e-09 -1.52093e-08 4.34313e-09)
(4.53598e-09 -3.87277e-09 7.85822e-09)
(3.65698e-09 -1.13515e-09 3.09985e-09)
(5.27885e-09 1.99837e-08 4.39912e-09)
(-1.30318e-09 3.01415e-08 -2.51841e-09)
(-5.19705e-09 3.70846e-09 -5.13972e-09)
(-1.96346e-09 -1.29451e-09 6.65288e-10)
(-1.00942e-09 5.3533e-09 5.08952e-10)
(-1.75575e-09 2.09198e-09 2.22752e-09)
(-6.79243e-09 1.29644e-08 -5.6121e-09)
(1.95745e-08 -9.81508e-09 -1.28585e-08)
(1.91314e-08 3.47105e-09 -1.71497e-08)
(-1.6799e-08 5.65914e-09 1.87677e-08)
(-1.12984e-08 1.41248e-09 1.29169e-08)
(-6.1281e-10 -9.81066e-10 6.44935e-10)
(-2.36379e-10 -2.08414e-10 -1.08714e-10)
(-2.31401e-10 8.61772e-10 2.81462e-10)
(5.0019e-11 7.58052e-10 1.0562e-09)
(1.3665e-10 5.50356e-10 1.26929e-09)
(7.32254e-11 2.46086e-10 4.08363e-10)
(1.54293e-11 -2.97412e-11 8.47503e-12)
(-3.5467e-11 -2.06658e-11 -4.40456e-12)
(-2.04633e-10 5.41148e-10 -1.89237e-10)
(-2.60587e-10 2.04896e-09 -1.17619e-09)
(3.30575e-10 7.99361e-10 -1.73824e-09)
(6.26013e-10 -5.33967e-10 -6.39599e-10)
(-1.32725e-11 1.98283e-09 3.29528e-10)
(-3.05448e-10 2.84508e-09 1.08487e-11)
(-5.78888e-10 2.79677e-09 -4.5722e-10)
(-7.38258e-10 3.78459e-09 -1.73303e-09)
(-1.49622e-10 6.21587e-09 -8.63933e-10)
(6.76496e-10 3.84945e-10 6.90866e-13)
(1.9428e-10 2.42196e-10 2.45274e-11)
(-1.50844e-11 -6.06995e-11 1.28136e-11)
(1.41321e-11 -1.72916e-10 1.55228e-10)
(8.48139e-11 -4.13611e-10 1.20786e-10)
(1.36805e-11 -3.28464e-10 -3.38044e-10)
(-1.06402e-10 8.75681e-12 -9.91864e-10)
(-2.20561e-09 2.33607e-10 -2.35915e-09)
(-4.86783e-09 9.82537e-09 -1.97444e-09)
(1.35482e-09 9.47107e-09 2.47407e-09)
(4.75636e-09 3.10142e-09 7.92021e-09)
(5.86444e-09 -1.3613e-09 3.68382e-09)
(7.9434e-09 1.64562e-08 3.37279e-09)
(-3.14295e-09 1.03553e-08 -3.27211e-09)
(-7.80145e-09 -1.38921e-10 -5.58109e-09)
(-1.89989e-09 -4.07304e-10 3.2052e-10)
(-2.87004e-10 5.83252e-10 1.12067e-09)
(-1.09614e-09 4.68971e-09 -3.27719e-10)
(-7.20494e-09 6.84761e-09 -4.82475e-10)
(1.61928e-08 1.40139e-08 -1.30907e-08)
(1.76278e-08 -3.93245e-08 -2.33983e-08)
(-1.42907e-08 -2.1845e-08 1.22321e-08)
(-1.01377e-08 2.46648e-09 9.32572e-09)
(-7.71714e-10 -1.84642e-10 2.99562e-10)
(-8.36521e-11 -3.67819e-10 3.35967e-11)
(-1.39965e-10 4.06272e-10 1.85949e-10)
(4.42592e-11 4.65422e-10 6.20318e-10)
(1.06498e-10 3.87846e-10 8.21995e-10)
(1.46796e-11 1.11965e-11 5.28536e-10)
(-1.04904e-11 -5.24882e-10 9.88837e-12)
(1.01701e-11 -7.27245e-10 -4.47679e-10)
(-9.55071e-11 8.99593e-11 -1.28134e-10)
(-1.67864e-10 8.38749e-10 -3.34778e-10)
(1.56707e-10 7.19622e-10 -1.74383e-09)
(5.77133e-10 -7.67638e-10 -1.45586e-09)
(4.84066e-10 -3.26547e-10 2.41353e-10)
(-3.24862e-10 3.27219e-09 6.75391e-10)
(-7.19407e-10 4.05033e-09 -4.06996e-10)
(-7.11418e-10 8.56294e-10 -6.71423e-10)
(-5.03429e-11 3.31277e-09 -7.09372e-10)
(1.82372e-10 1.76735e-09 4.20998e-11)
(5.00145e-11 7.75696e-10 1.58356e-10)
(-4.82458e-11 2.97708e-11 2.74532e-11)
(-9.07808e-12 7.73286e-12 8.88795e-11)
(6.74619e-12 -1.27698e-10 2.77553e-11)
(1.02527e-11 -4.88622e-10 -9.69596e-10)
(-2.51561e-11 -2.75483e-10 -1.40453e-09)
(-1.22714e-09 -5.11594e-11 -9.69488e-10)
(-2.57689e-09 5.95664e-09 -3.87308e-09)
(1.13527e-09 1.96325e-08 -7.32375e-10)
(2.32916e-09 2.45226e-09 4.27358e-09)
(6.12031e-09 7.71926e-10 2.55875e-09)
(7.36445e-09 1.6973e-09 2.32615e-09)
(-4.45797e-09 -1.59767e-08 -2.86953e-09)
(-7.09656e-09 -4.65927e-09 -3.63834e-09)
(-1.82446e-09 -4.3624e-11 5.36406e-10)
(-5.67911e-11 -1.56283e-09 1.06743e-09)
(-5.61253e-10 -1.23513e-09 -2.08387e-09)
(-4.86972e-09 1.64617e-09 1.62654e-09)
(1.06167e-08 2.62328e-08 -1.05485e-08)
(1.20579e-08 -5.10539e-08 -2.53658e-08)
(-8.63378e-09 -2.65657e-08 -1.44165e-09)
(-7.05183e-09 6.24308e-09 5.0799e-10)
(-1.16775e-09 1.94949e-09 -3.48359e-10)
(-1.33097e-10 -1.57039e-10 1.77424e-10)
(-7.29009e-11 1.48212e-10 1.52936e-10)
(4.6902e-11 3.00307e-10 3.21031e-10)
(4.82019e-11 1.4323e-10 2.80203e-10)
(-1.04715e-10 -1.88538e-10 2.98668e-10)
(-1.30759e-10 -7.44646e-10 -7.07266e-11)
(8.37555e-11 -1.65919e-09 -1.97499e-09)
(9.9764e-11 -7.0863e-10 -2.07392e-09)
(-1.43265e-10 4.51743e-10 -1.31567e-10)
(2.47554e-11 -1.42509e-10 -8.32403e-10)
(4.20166e-10 -1.04064e-09 -1.85457e-09)
(7.49579e-10 -1.83521e-09 -6.11962e-10)
(3.2627e-10 -3.46902e-10 1.51536e-09)
(-2.96537e-10 -4.51629e-10 2.8294e-10)
(-9.05184e-10 1.33044e-09 -4.50941e-10)
(4.2822e-11 7.48487e-10 -2.32613e-10)
(1.63185e-10 3.07102e-09 1.5965e-11)
(-1.77431e-10 2.92247e-09 1.1096e-10)
(-1.82547e-10 2.75943e-10 5.99628e-11)
(-1.85022e-11 6.61674e-11 1.79657e-12)
(-1.75421e-11 -1.37502e-10 -2.01757e-11)
(-1.88521e-11 -4.62951e-11 -1.3385e-09)
(-1.74825e-11 -1.85459e-10 -3.91833e-09)
(-9.20273e-10 -1.01435e-10 -1.36147e-09)
(-7.25179e-10 5.15016e-10 -1.45038e-09)
(5.97734e-10 9.07091e-09 -2.67992e-09)
(8.11029e-10 -2.20566e-09 3.4045e-09)
(5.66987e-09 4.66495e-09 3.50915e-09)
(4.27621e-09 -5.34965e-09 1.67598e-09)
(-4.42105e-09 -1.84106e-08 -2.98162e-09)
(-4.32883e-09 -5.00789e-09 -2.42287e-09)
(-1.21863e-09 -3.68285e-12 4.25114e-10)
(-5.76066e-10 6.92248e-10 7.1597e-10)
(-4.37522e-10 -1.29125e-09 -3.41119e-09)
(-1.33457e-09 2.04572e-09 -1.25751e-09)
(5.04363e-09 2.00679e-08 -6.37554e-09)
(6.45603e-09 -3.86203e-08 -2.22348e-08)
(-2.12686e-09 -1.80952e-08 -1.74179e-08)
(-4.1122e-09 8.75604e-09 -7.64496e-09)
(-2.15491e-09 2.86686e-09 -2.99798e-10)
(-4.79381e-10 -1.10954e-11 2.29954e-10)
(-4.51475e-11 2.75499e-11 1.26818e-10)
(4.28761e-11 1.68619e-10 1.64318e-10)
(3.76055e-12 5.20399e-13 4.59863e-11)
(-1.70517e-10 2.37357e-10 3.13356e-10)
(-3.2529e-10 5.12703e-12 1.3299e-12)
(1.0546e-11 -1.88697e-09 -3.07046e-09)
(3.53996e-10 -1.5395e-09 -4.45953e-09)
(-4.4431e-11 2.0597e-10 -1.38406e-09)
(-1.61715e-10 -1.14744e-10 -6.47427e-11)
(2.16729e-10 -1.18863e-09 -1.27743e-09)
(6.10889e-10 -2.08965e-09 -1.44703e-09)
(9.17329e-10 -3.58396e-09 8.39642e-10)
(4.43898e-10 -6.44366e-09 -5.75323e-10)
(-3.96498e-10 -6.71006e-11 -4.46468e-10)
(3.67554e-10 -2.1149e-11 -2.38826e-11)
(7.18395e-10 3.82256e-09 7.81203e-11)
(-6.12975e-10 4.73011e-09 4.32872e-11)
(-7.35944e-10 8.72452e-10 3.8198e-11)
(-1.09661e-10 2.15441e-11 3.91124e-11)
(-1.83584e-11 -1.16599e-10 -4.38359e-12)
(1.49375e-12 2.9346e-11 -1.95897e-10)
(-3.94976e-11 -1.24874e-10 -4.05561e-09)
(-1.08693e-09 3.01329e-11 -6.18742e-09)
(-5.1597e-10 -1.58074e-09 -3.99119e-10)
(5.2275e-10 -1.03621e-09 -1.32839e-09)
(1.40445e-09 5.84033e-10 3.84363e-09)
(5.39476e-09 4.40144e-09 6.67029e-09)
(2.01662e-09 -2.53761e-09 2.67948e-09)
(-4.37785e-09 -9.50022e-09 -2.56247e-09)
(-2.8623e-09 -3.40108e-09 -2.19109e-09)
(-4.87138e-10 1.71151e-11 2.46911e-10)
(-3.1917e-10 1.1537e-09 1.05114e-09)
(-2.41622e-10 1.4064e-09 -2.71455e-09)
(1.0102e-11 2.51656e-09 -5.35369e-09)
(1.20577e-09 7.58317e-09 -3.30951e-09)
(3.26476e-09 -1.68379e-08 -1.65871e-08)
(2.32857e-09 -9.49735e-09 -2.56487e-08)
(-2.20773e-09 5.24417e-09 -9.58861e-09)
(-3.21888e-09 1.16126e-09 -2.93795e-10)
(-7.94615e-10 -1.22737e-11 8.62037e-11)
(-3.16358e-11 -5.06744e-11 8.63135e-11)
(4.06802e-11 7.12501e-11 1.01459e-10)
(6.97007e-11 3.68588e-11 1.41872e-11)
(-9.67523e-11 1.37707e-09 6.16643e-10)
(-6.32398e-10 1.69025e-09 3.02709e-10)
(-2.88076e-10 -2.08635e-09 -4.09084e-09)
(5.87495e-10 -2.85264e-09 -5.94619e-09)
(1.96461e-10 -2.3238e-10 -2.30888e-09)
(-2.98465e-10 3.3537e-10 3.18457e-11)
(-4.3842e-11 -4.47593e-10 -4.23612e-10)
(1.75572e-10 -1.39102e-09 -1.27283e-09)
(6.67284e-10 -4.30349e-09 -1.18399e-09)
(7.75285e-10 -7.82468e-09 -3.8397e-09)
(7.83459e-10 -2.95682e-09 -8.70671e-10)
(1.06378e-09 -8.28278e-11 -2.23534e-12)
(1.39384e-09 3.8459e-10 3.63479e-10)
(-9.32133e-10 1.2616e-09 4.20355e-10)
(-1.40182e-09 8.05405e-10 1.49464e-10)
(-2.77218e-10 -4.40488e-11 2.39241e-11)
(-1.53418e-11 1.41407e-10 1.89814e-11)
(-2.3208e-11 -1.67979e-10 -1.0607e-10)
(-1.49838e-11 -3.52417e-10 -1.90207e-09)
(-1.29773e-09 1.20542e-10 -9.46937e-09)
(-1.03603e-09 -1.63927e-09 -5.45046e-09)
(1.19249e-09 -5.89689e-09 -1.20573e-10)
(2.22383e-09 2.11598e-09 3.18665e-09)
(4.852e-09 -3.15853e-10 1.36568e-08)
(7.4138e-10 -4.21734e-09 1.06885e-08)
(-4.65966e-09 -8.16792e-09 6.30135e-10)
(-1.90047e-09 1.52583e-10 -1.71519e-09)
(-5.95483e-11 4.82989e-10 -4.60147e-10)
(-2.26033e-10 -1.87666e-10 2.05377e-09)
(-8.83213e-11 -1.01891e-08 2.9791e-09)
(2.00653e-10 -9.43113e-09 -3.59839e-09)
(1.94122e-10 -5.75757e-10 -1.48958e-09)
(2.15597e-09 -3.21041e-09 -1.05695e-08)
(3.39813e-09 -3.68565e-09 -2.1746e-08)
(-1.41984e-09 -1.28499e-09 -8.85903e-09)
(-3.46973e-09 -1.12624e-09 -1.99066e-10)
(-7.75269e-10 -6.17894e-12 5.76794e-11)
(-2.39029e-11 -1.32242e-10 8.85667e-11)
(6.68385e-11 8.9296e-11 1.01509e-10)
(3.50986e-10 3.15472e-11 2.00612e-11)
(2.7014e-10 1.67606e-09 9.27206e-10)
(-1.23251e-09 4.06906e-09 8.95054e-10)
(-1.19025e-09 -1.9546e-09 -5.49262e-09)
(8.32457e-10 -6.1364e-09 -8.37838e-09)
(7.94984e-10 -1.49241e-09 -3.10132e-09)
(-2.05874e-10 5.46556e-10 -1.61137e-11)
(-2.24326e-10 4.71462e-10 3.09068e-11)
(-3.89438e-10 9.5839e-11 -4.15284e-10)
(-4.26727e-10 -2.26832e-09 -2.12937e-09)
(2.0343e-10 -3.1347e-09 -5.90998e-09)
(1.79812e-09 -3.83811e-09 -2.17047e-09)
(1.29535e-09 9.83516e-11 4.31484e-11)
(1.05066e-09 -3.55639e-09 3.46967e-10)
(-4.53894e-10 -3.68542e-09 5.00888e-10)
(-1.05759e-09 -5.26041e-11 1.7505e-12)
(-2.90999e-10 2.59038e-10 -7.40585e-11)
(-5.57635e-11 1.41908e-10 5.64194e-11)
(-1.43742e-10 1.05457e-10 -9.66262e-11)
(4.43109e-11 -6.37297e-12 -7.63903e-10)
(-1.4502e-09 -5.48814e-10 -8.99172e-09)
(-2.26298e-09 1.92998e-09 -1.22953e-08)
(1.57716e-09 -7.73011e-09 -3.0532e-10)
(2.98977e-09 -4.70615e-10 1.64367e-09)
(3.55556e-09 -3.20443e-09 1.98999e-08)
(-2.01085e-10 -1.02145e-08 1.79904e-08)
(-3.04069e-09 -5.88317e-09 1.98657e-09)
(-3.72958e-10 8.14729e-09 8.53472e-10)
(-6.33362e-10 1.9265e-09 -4.35142e-10)
(-3.52296e-09 1.02433e-09 -3.18884e-10)
(-3.02408e-09 -1.93196e-08 9.77291e-09)
(2.86756e-09 -2.86971e-08 5.13167e-09)
(3.17263e-09 -4.57587e-09 -2.81343e-10)
(2.44908e-09 -1.82233e-10 -5.00851e-09)
(2.7938e-09 -2.61613e-09 -1.46005e-08)
(-1.52351e-09 -6.32904e-09 -6.57826e-09)
(-2.8101e-09 -1.73774e-09 -4.96994e-11)
(-4.99123e-10 3.3522e-12 6.53152e-11)
(-3.86323e-12 1.08441e-11 1.59704e-10)
(8.69861e-11 3.60319e-10 1.35472e-10)
(5.15414e-10 2.59579e-10 3.49856e-12)
(1.07357e-09 -5.01648e-10 5.14015e-10)
(-1.65674e-09 3.00318e-09 1.3587e-09)
(-3.24888e-09 -2.88825e-10 -5.40355e-09)
(7.00396e-10 -1.109e-08 -1.26161e-08)
(2.13451e-09 -5.67788e-09 -5.70321e-09)
(2.79705e-10 2.78271e-10 -2.56109e-10)
(-1.60004e-10 6.87041e-10 1.44815e-10)
(-5.85781e-10 9.85532e-10 1.12595e-10)
(-1.58973e-09 5.1231e-10 -1.32252e-09)
(-6.02588e-10 2.18825e-09 -3.78733e-09)
(1.74622e-09 -1.14765e-09 -2.07371e-09)
(1.13282e-09 -9.51783e-11 1.48181e-10)
(1.79432e-10 -2.02316e-09 1.45275e-10)
(1.75758e-10 -3.14404e-09 1.12852e-10)
(-1.34428e-10 -6.12916e-10 -4.97002e-11)
(-2.11527e-10 5.25038e-10 -7.71825e-11)
(-6.18837e-11 3.13211e-10 4.19574e-11)
(-5.9682e-11 1.75937e-10 2.91442e-11)
(-2.3729e-10 7.78537e-10 -4.62262e-11)
(-6.42191e-10 -7.54027e-10 -5.06263e-09)
(-3.28113e-09 4.54156e-09 -1.54112e-08)
(3.5948e-10 9.62105e-10 -1.63735e-09)
(3.63946e-09 -2.4974e-09 4.22393e-10)
(1.7675e-09 -2.15344e-09 1.85353e-08)
(-4.57505e-11 -1.02512e-08 1.62843e-08)
(1.23843e-09 1.69595e-09 1.87769e-10)
(5.21014e-10 8.60543e-09 3.17144e-09)
(-2.35318e-09 1.83961e-09 1.75857e-09)
(-6.9028e-09 1.03636e-09 -1.60029e-09)
(-9.60257e-09 -8.28168e-09 6.45203e-09)
(4.79465e-09 -3.01459e-08 8.24178e-09)
(9.30532e-09 -8.68344e-09 1.19926e-12)
(2.77298e-09 -5.81805e-11 -9.90766e-10)
(1.43017e-09 -4.03323e-09 -6.148e-09)
(-1.11889e-09 -5.39811e-09 -3.33541e-09)
(-1.44619e-09 -4.69396e-10 -1.23216e-10)
(-2.26259e-10 7.13017e-12 6.93967e-11)
(9.19472e-11 3.15974e-10 1.28382e-10)
(1.46921e-10 7.27469e-10 9.8535e-12)
(4.915e-11 1.5432e-09 1.0206e-10)
(1.09313e-09 -1.05101e-09 -3.12103e-10)
(-1.11816e-09 -2.16942e-09 -2.1072e-10)
(-5.63248e-09 1.21736e-09 -2.36942e-09)
(-9.34205e-10 -1.42859e-08 -1.42378e-08)
(4.41164e-09 -1.52277e-08 -1.12646e-08)
(1.84648e-09 -1.7246e-09 -1.54476e-09)
(2.65245e-12 4.84627e-10 4.0471e-11)
(-4.2678e-10 1.03721e-09 -7.34859e-11)
(-1.66719e-09 1.58635e-09 -4.67249e-10)
(-7.09888e-10 2.92577e-09 -8.74253e-10)
(9.7082e-10 1.6987e-09 3.2637e-10)
(9.92956e-10 -2.92733e-10 7.94396e-10)
(2.92895e-11 -1.15624e-11 1.72485e-10)
(-4.996e-12 -5.62124e-10 5.99228e-12)
(1.84552e-10 -5.49516e-10 -1.31642e-13)
(3.84765e-11 -1.75775e-10 -2.17989e-11)
(-1.82433e-10 1.23726e-10 -1.13933e-10)
(1.72195e-11 -2.49267e-11 -6.21667e-12)
(-2.6558e-10 2.46408e-10 -1.36177e-11)
(-1.61836e-10 4.87593e-10 -1.33447e-09)
(-1.53147e-09 9.34638e-10 -1.03568e-08)
(-8.6329e-10 8.63243e-09 -3.56923e-09)
(1.7862e-09 -1.85307e-09 3.0998e-10)
(9.13663e-10 -8.3978e-10 1.08248e-08)
(1.18652e-09 -3.34676e-09 7.44284e-09)
(3.39141e-09 1.82544e-09 -1.07365e-09)
(-4.13375e-10 -4.42291e-09 2.54323e-09)
(-3.21499e-09 -1.0074e-09 1.26823e-09)
(-6.86296e-09 -8.40864e-10 -7.88703e-11)
(-1.37122e-08 5.91269e-09 3.63191e-09)
(2.52099e-09 -6.72479e-09 8.72378e-09)
(1.35079e-08 -9.27489e-09 4.20803e-10)
(4.11123e-09 -2.03506e-10 -2.47554e-10)
(9.88082e-10 -2.36454e-09 -2.0434e-09)
(-2.65905e-10 4.03169e-11 -2.25706e-09)
(-9.80589e-10 1.37689e-09 -1.62704e-10)
(-2.41054e-10 8.511e-11 3.39289e-10)
(2.48872e-10 2.88242e-10 5.46785e-11)
(5.28289e-10 6.65645e-10 -7.60973e-11)
(-8.4732e-11 1.96991e-09 3.35279e-10)
(-2.82316e-10 1.40392e-09 8.46081e-10)
(-8.85461e-10 -3.12892e-09 -9.18349e-10)
(-7.41988e-09 1.33542e-09 1.04624e-10)
(-5.12684e-09 -8.36718e-09 -8.50447e-09)
(6.47878e-09 -2.55986e-08 -1.5913e-08)
(5.84677e-09 -8.75304e-09 -4.85097e-09)
(8.30244e-10 1.24836e-10 -1.05039e-10)
(-2.00526e-10 6.39236e-10 -5.11438e-10)
(-1.16194e-09 1.70641e-09 -8.76286e-10)
(-5.94553e-10 1.75088e-09 -4.69185e-10)
(5.31203e-10 1.76884e-09 2.13884e-09)
(4.5892e-10 5.2796e-11 1.66619e-09)
(8.65829e-11 -1.92253e-10 3.79955e-10)
(-2.20155e-11 2.38479e-11 7.4192e-11)
(-1.20295e-11 5.94696e-11 7.64064e-11)
(3.35137e-11 -3.33372e-10 -1.00895e-10)
(1.13508e-11 -2.81644e-10 -4.56334e-10)
(-1.82833e-11 -2.00588e-11 -1.9079e-10)
(-2.80526e-11 -3.27845e-10 5.53748e-12)
(-4.1503e-10 6.276e-10 -2.86559e-10)
(-1.84295e-10 -7.30104e-10 -3.65682e-09)
(-6.35692e-10 4.39426e-09 -2.48977e-09)
(1.90775e-11 1.71113e-10 -7.07602e-11)
(1.2549e-09 -5.63914e-10 2.72321e-09)
(8.99133e-10 2.50192e-10 1.18715e-09)
(5.81751e-10 -2.75743e-09 -9.21325e-10)
(-5.22263e-10 -8.24217e-09 4.02667e-10)
(-8.21857e-10 -1.69791e-09 4.6536e-11)
(-4.12146e-09 -5.23819e-10 8.3906e-12)
(-1.15443e-08 9.65179e-09 -1.82332e-10)
(-1.08264e-09 1.52778e-08 6.8432e-09)
(1.1494e-08 -1.54745e-10 4.59754e-09)
(5.41562e-09 -7.02072e-11 -2.39707e-10)
(1.5742e-09 -6.67464e-11 -4.40147e-10)
(2.98562e-10 2.1278e-09 -1.52903e-10)
(-1.47649e-09 1.31655e-09 2.68048e-09)
(-6.62926e-10 8.59927e-11 1.49962e-09)
(3.09334e-10 -1.85618e-12 4.52571e-11)
(7.84236e-10 6.17011e-12 1.12738e-10)
(3.60221e-10 8.93529e-10 -4.81396e-10)
(-8.16466e-10 2.15708e-09 -1.01188e-09)
(-1.16989e-09 -4.09824e-10 -5.90734e-10)
(-7.55544e-09 1.45791e-09 7.61963e-10)
(-1.13405e-08 5.23753e-09 9.06548e-10)
(4.04173e-09 -1.97782e-08 -1.10773e-08)
(1.17854e-08 -1.93902e-08 -8.07794e-09)
(3.69733e-09 -1.69241e-09 -8.13191e-10)
(1.8635e-10 -3.04703e-10 -3.35017e-10)
(-7.99259e-10 1.32107e-09 -1.8294e-09)
(-5.22914e-10 1.28682e-09 -1.17068e-09)
(2.61983e-10 8.66521e-10 2.11408e-09)
(1.77067e-10 1.36778e-10 1.36772e-09)
(1.04798e-11 -3.68886e-11 1.39398e-10)
(1.08614e-10 -5.26636e-11 1.08887e-10)
(4.62444e-11 2.32902e-10 5.98419e-10)
(-1.12568e-10 1.27234e-10 2.32907e-10)
(-6.33424e-11 -2.57674e-10 -3.89423e-10)
(3.77603e-13 -6.77405e-11 -5.37328e-11)
(-2.4781e-12 -5.10051e-11 2.06184e-10)
(-3.14278e-10 -2.90976e-11 -3.00663e-10)
(2.23555e-12 5.71886e-10 -1.6175e-09)
(-4.86499e-10 3.98397e-10 -1.14389e-09)
(-2.33308e-10 1.80549e-09 2.65987e-10)
(9.13374e-10 3.26511e-10 6.22721e-10)
(2.41759e-10 -3.96768e-10 1.87487e-09)
(-9.01394e-11 -1.43942e-09 -8.67568e-10)
(6.86858e-11 -1.5996e-09 -1.66067e-09)
(-3.41028e-11 -1.21159e-10 -1.44718e-10)
(-2.10479e-09 -9.12633e-11 6.90611e-11)
(-6.91647e-09 6.95001e-09 -4.75477e-10)
(-1.46203e-09 1.73052e-08 1.56243e-09)
(6.89772e-09 7.00041e-09 3.53352e-09)
(4.01491e-09 2.63152e-10 3.73796e-10)
(1.90383e-09 -2.51928e-10 5.34053e-10)
(2.90105e-10 -1.35725e-09 3.74273e-09)
(-1.8363e-09 -1.11291e-09 4.09274e-09)
(-7.83036e-10 -6.29775e-11 1.24873e-09)
(2.0713e-10 -9.74754e-11 3.66871e-11)
(8.99546e-10 -4.03338e-10 2.60092e-11)
(8.24743e-10 1.17227e-10 -4.68789e-10)
(-8.05956e-10 2.4843e-09 -2.50606e-09)
(-1.16658e-09 5.31542e-10 -4.22253e-09)
(-4.89664e-09 4.30318e-10 -4.13029e-10)
(-1.39172e-08 1.3455e-08 5.04317e-09)
(-4.21054e-09 6.8911e-09 1.878e-09)
(1.3266e-08 -1.3906e-08 -6.00682e-09)
(9.01245e-09 -5.46864e-09 -2.48294e-09)
(1.09823e-09 -5.28035e-10 -3.54785e-11)
(-2.8628e-10 -1.85473e-10 -1.56981e-09)
(-8.6057e-11 5.37087e-10 -1.10416e-09)
(-4.8695e-12 3.30984e-10 4.62507e-10)
(4.5117e-11 -1.77755e-11 9.15878e-10)
(1.57502e-12 7.77154e-11 2.05585e-10)
(9.6738e-11 -3.04095e-12 1.09656e-11)
(7.01487e-11 2.37946e-10 3.5032e-10)
(-1.91916e-10 1.09311e-09 4.79595e-10)
(-7.65171e-11 -1.04692e-09 -4.59494e-10)
(8.11372e-11 -1.28009e-09 -6.05754e-10)
(-1.17557e-11 -4.90743e-11 8.22577e-11)
(-1.20002e-10 -1.82057e-11 -3.68431e-10)
(5.99915e-12 6.16528e-10 -9.47992e-10)
(-4.618e-11 -4.03099e-11 -3.5925e-12)
(1.00231e-11 1.52525e-09 7.82009e-11)
(2.10298e-10 5.90848e-10 8.30567e-10)
(1.01305e-10 8.50138e-11 2.81176e-09)
(6.15924e-11 4.80058e-11 -2.07668e-09)
(6.29075e-11 9.99986e-10 -1.82594e-09)
(-1.63896e-10 6.10925e-10 5.63004e-10)
(-8.62872e-10 -4.60213e-10 4.24367e-11)
(-3.49297e-09 4.00206e-09 5.66148e-10)
(-1.01853e-09 1.24685e-08 2.91848e-10)
(3.61316e-09 6.06526e-09 1.05437e-09)
(2.00424e-09 3.25055e-10 5.0749e-10)
(7.45285e-10 -9.25685e-10 2.42221e-10)
(-1.22814e-10 -3.64291e-09 2.56257e-09)
(-8.04384e-10 -1.60312e-09 1.86624e-09)
(-1.52455e-10 -7.22783e-11 2.55531e-10)
(1.5302e-10 2.68872e-10 -1.83952e-11)
(8.77563e-10 -1.79138e-10 -8.77133e-12)
(1.72819e-09 -1.02386e-09 -8.49504e-10)
(-6.14364e-10 2.94471e-09 -3.10809e-09)
(-2.17757e-09 1.05964e-09 -7.74275e-09)
(-1.49335e-09 -3.64251e-09 -6.84333e-09)
(-7.90439e-09 9.35285e-09 2.86216e-09)
(-8.52034e-09 2.27927e-08 9.73312e-09)
(5.5701e-09 6.91904e-09 6.21202e-09)
(9.70657e-09 -4.728e-09 -1.21431e-09)
(2.68273e-09 -9.52108e-10 -6.15964e-10)
(3.75555e-11 -7.20136e-10 -3.77488e-10)
(7.5685e-13 -6.63435e-10 -1.64955e-10)
(-1.06881e-11 -1.10905e-09 2.73128e-11)
(5.36585e-11 -5.32898e-10 5.06335e-10)
(1.93807e-11 6.23678e-10 7.07693e-10)
(1.96587e-10 7.72809e-11 2.53994e-11)
(6.37165e-10 9.45293e-10 2.60211e-10)
(-7.99889e-10 2.99165e-09 9.05175e-11)
(-1.34671e-09 -1.07699e-09 -2.01191e-09)
(5.32174e-10 -4.99751e-09 -1.94282e-09)
(6.81604e-10 -7.79294e-10 -6.85866e-10)
(2.58754e-11 -5.65101e-10 -1.10074e-10)
(-1.01212e-11 -5.50389e-10 -6.82348e-10)
(-4.02771e-11 -3.63707e-11 1.76656e-10)
(8.31075e-11 3.10194e-10 -1.25735e-10)
(2.06696e-10 1.1802e-10 1.51125e-09)
(-3.7527e-11 2.28763e-11 7.74735e-10)
(3.89427e-10 -1.7066e-10 -1.94867e-09)
(3.74021e-10 1.38445e-10 -4.52752e-10)
(-8.11104e-10 8.24852e-11 6.50942e-10)
(-3.9794e-10 5.76774e-11 4.31183e-12)
(-2.72916e-10 1.06683e-09 7.16272e-10)
(-3.91162e-10 6.43638e-09 1.18095e-09)
(6.64849e-10 3.07969e-09 1.36348e-09)
(4.39114e-10 -6.66633e-11 5.6549e-10)