/*--------------------------------*- C++ -*----------------------------------*\
| =========                 |                                                 |
| \\      /  F ield         | OpenFOAM: The Open Source CFD Toolbox           |
|  \\    /   O peration     | Version:  5.0                                   |
|   \\  /    A nd           | Web:      www.OpenFOAM.org                      |
|    \\/     M anipulation  |                                                 |
\*---------------------------------------------------------------------------*/
FoamFile
{
    version     2.0;
    format      ascii;
    class       volVectorField;
    location    "50.4676134421789371";
    object      VV3;
}
// * * * * * * * * * * * * * * * * * * * * * * * * * * * * * * * * * * * * * //

dimensions      [0 2 -3 0 0 0 0];

internalField   nonuniform List<vector> 
60000
(
(6.6109e-11 -1.26098e-08 1.47203e-10)
(1.3574e-10 -3.68616e-09 4.11074e-11)
(1.12047e-10 -4.06659e-10 1.23079e-12)
(4.16794e-11 1.15989e-10 2.8722e-12)
(5.49577e-11 2.71877e-09 4.29538e-12)
(5.65094e-11 8.45743e-09 8.99584e-12)
(-3.22412e-11 5.23656e-09 9.54911e-12)
(-6.75023e-11 3.31108e-10 1.33172e-11)
(-3.70204e-11 -2.13784e-09 6.04848e-11)
(-5.29817e-11 -1.5648e-08 2.39715e-10)
(-2.60976e-11 -2.06563e-08 5.81304e-10)
(4.05046e-11 -9.16286e-09 5.36488e-10)
(3.89e-11 -9.11995e-10 1.35252e-10)
(1.24613e-11 3.7206e-11 -3.16049e-11)
(2.13412e-11 2.33846e-09 -5.51183e-11)
(1.1795e-10 1.12488e-08 -7.85729e-11)
(2.68214e-10 2.22962e-08 -8.20996e-11)
(4.8013e-10 2.72981e-08 -4.45484e-11)
(3.8678e-10 3.33564e-08 1.51293e-10)
(-3.70323e-10 2.38007e-08 1.96595e-09)
(-6.64947e-10 3.03519e-09 2.02351e-09)
(-2.65387e-10 -7.26251e-09 3.66389e-10)
(-2.16137e-10 -4.75403e-08 1.94711e-10)
(-2.08365e-10 -4.99431e-08 -4.0265e-10)
(1.096e-11 -2.07058e-08 -1.71106e-09)
(3.27995e-11 -5.71313e-09 -3.3994e-09)
(-9.3948e-11 -3.23148e-09 -3.80351e-09)
(1.19385e-11 -4.08719e-09 -2.30337e-09)
(2.75023e-10 -3.37203e-09 -6.49197e-10)
(2.28563e-10 -3.05686e-10 -4.28404e-11)
(2.90816e-10 1.3078e-09 2.82224e-11)
(5.67523e-10 1.59627e-08 2.62174e-10)
(6.96443e-10 3.46369e-08 3.96544e-10)
(6.6735e-10 4.65353e-08 4.6788e-11)
(-3.3294e-10 5.11492e-08 -3.0774e-10)
(-1.23917e-09 2.63179e-08 -1.44043e-10)
(-6.62719e-10 8.00493e-10 2.88203e-11)
(-1.58103e-10 -4.09188e-09 1.9262e-11)
(-1.5554e-10 -2.17331e-08 5.40385e-11)
(-3.1316e-11 -2.268e-08 1.3534e-10)
(1.84509e-09 -1.38507e-08 4.67048e-10)
(1.08248e-09 -2.58645e-09 2.33514e-10)
(2.60274e-10 2.58456e-10 -3.75748e-15)
(2.69609e-10 1.50306e-10 -1.19308e-11)
(7.81683e-10 1.41038e-09 -8.67725e-12)
(1.91879e-10 7.19848e-09 3.14185e-12)
(-7.85034e-10 8.01873e-09 4.547e-11)
(-6.70181e-10 3.54085e-10 1.90803e-10)
(-1.57276e-09 -2.06802e-09 8.29682e-10)
(-1.81157e-09 -2.63646e-08 1.8623e-09)
(6.83695e-10 -3.82917e-08 2.91676e-09)
(1.94913e-09 -1.90489e-08 2.43635e-09)
(8.86114e-10 -2.4372e-09 5.06892e-10)
(3.14486e-10 2.78025e-11 -1.52278e-10)
(1.10862e-09 2.27227e-09 -1.06916e-10)
(1.8852e-09 1.09796e-08 -3.08755e-10)
(1.32466e-09 1.95435e-08 -9.35123e-10)
(5.86925e-10 1.88283e-08 -6.26798e-10)
(-7.80115e-10 1.56839e-08 1.93865e-10)
(-2.65317e-09 4.44986e-09 9.39391e-09)
(-2.40289e-09 -2.1948e-09 2.09873e-08)
(-4.81434e-09 -3.71725e-08 1.03427e-08)
(-4.07145e-09 -1.75664e-07 4.78735e-09)
(2.93983e-09 -1.33661e-07 -7.89219e-09)
(4.45439e-09 -3.0828e-08 -1.36208e-08)
(1.72841e-09 -1.68702e-10 -1.08916e-08)
(2.67894e-10 2.02567e-09 -7.00896e-09)
(-2.7371e-11 2.82529e-09 -3.362e-09)
(7.82938e-11 1.88563e-09 -8.89693e-10)
(2.20293e-10 1.31599e-10 -6.68943e-11)
(1.32182e-09 2.1488e-11 5.26748e-11)
(2.73924e-09 1.60266e-09 5.16621e-10)
(2.31858e-09 7.45917e-09 4.49325e-10)
(9.3083e-10 1.02706e-08 -1.59173e-09)
(-1.67411e-09 8.42877e-09 -3.76521e-09)
(-3.71656e-09 6.50106e-09 -2.33477e-09)
(-2.33936e-09 1.36431e-09 -2.07928e-10)
(-2.101e-09 -3.49436e-10 6.60047e-12)
(-1.7054e-09 -9.97114e-09 5.47097e-11)
(9.5587e-10 -2.06447e-08 1.89092e-10)
(1.89432e-09 -1.25793e-08 -3.00665e-10)
(1.61016e-09 -5.50338e-09 2.54503e-10)
(4.01717e-10 -1.00532e-10 1.38089e-11)
(1.46418e-10 7.35276e-11 -2.00581e-11)
(7.6515e-10 -1.38312e-09 -3.87589e-11)
(7.79066e-10 -2.83322e-09 -3.94869e-12)
(-7.17013e-10 6.684e-09 1.02446e-11)
(-1.12927e-09 3.10882e-09 1.34433e-10)
(-2.85583e-09 1.56522e-09 4.02446e-10)
(-3.90814e-09 -1.00166e-08 9.42961e-10)
(7.15675e-10 -3.45269e-08 8.787e-10)
(3.83894e-09 -2.17984e-08 1.0279e-09)
(2.07736e-09 -3.58463e-09 5.65188e-10)
(5.06056e-10 -4.86963e-11 2.50765e-11)
(1.12923e-09 8.55473e-10 -3.73787e-11)
(1.85965e-09 3.02602e-09 -7.51095e-10)
(1.03341e-09 2.2564e-09 -2.01287e-09)
(3.8825e-11 -1.66199e-09 -1.71638e-09)
(-1.0948e-09 -4.75857e-09 -2.54564e-11)
(-2.12621e-09 -4.47363e-09 4.24066e-09)
(-5.12403e-09 -4.99724e-10 3.0828e-08)
(-1.91292e-08 -5.45779e-08 2.62493e-08)
(-1.05712e-08 -2.82935e-07 1.18599e-08)
(1.56092e-08 -1.94791e-07 -1.5898e-08)
(1.44296e-08 -2.85991e-08 -2.25463e-08)
(3.51886e-09 2.39483e-09 -8.7248e-09)
(2.02218e-10 1.42902e-09 -2.45908e-09)
(4.10151e-13 3.26574e-09 -8.08375e-10)
(-4.80997e-12 2.61212e-09 -1.41149e-10)
(2.16319e-11 6.88203e-10 6.2747e-12)
(3.47757e-10 -3.84591e-10 1.14004e-10)
(1.17112e-09 -9.78955e-09 4.0581e-10)
(1.49423e-09 -1.94237e-08 5.18785e-10)
(7.48075e-10 -2.05023e-08 -9.10335e-10)
(-6.1389e-10 -1.7758e-08 -2.89367e-09)
(-1.76944e-09 -5.89319e-09 -2.37608e-09)
(-1.25226e-09 2.11602e-09 -4.77902e-10)
(-1.21993e-09 3.46115e-09 6.79883e-12)
(-2.25689e-09 1.48445e-08 -1.50227e-11)
(-5.66245e-10 1.38592e-09 -4.12647e-10)
(9.9233e-10 -1.62912e-08 -6.74409e-10)
(2.56307e-09 -2.21016e-08 5.36131e-10)
(9.31764e-10 -2.57067e-09 1.64586e-10)
(1.24591e-10 -9.1122e-11 -2.85918e-12)
(4.25758e-10 -4.63484e-10 -6.68819e-11)
(1.12349e-09 -4.05673e-09 -1.5027e-11)
(-6.09975e-11 2.15471e-09 2.19473e-12)
(-1.25233e-09 9.13051e-09 2.13065e-10)
(-3.05449e-09 1.82594e-09 2.64291e-10)
(-6.03463e-09 1.07001e-08 4.81393e-10)
(-7.69235e-10 -3.76717e-08 6.25313e-10)
(5.56003e-09 -4.80595e-08 1.1073e-09)
(3.4385e-09 -1.26627e-08 1.05179e-09)
(8.40902e-10 -7.90286e-11 8.44254e-11)
(1.48479e-09 1.63541e-09 1.30045e-10)
(2.06022e-09 1.09128e-08 -1.38573e-09)
(7.7809e-10 1.31982e-08 -4.36579e-09)
(-2.19285e-10 5.85807e-09 -3.74543e-09)
(-1.09338e-09 3.44277e-09 -3.87422e-10)
(-2.18387e-09 8.30273e-09 1.72134e-09)
(-8.28514e-09 3.5402e-10 3.48172e-08)
(-3.80786e-08 -2.16882e-08 4.38869e-08)
(-2.06483e-08 -2.88698e-07 1.72093e-08)
(3.29177e-08 -2.61293e-07 -2.96974e-08)
(2.76803e-08 -4.58115e-08 -4.31703e-08)
(5.23715e-09 5.15009e-10 -1.14578e-08)
(3.81868e-10 1.10185e-09 -2.51332e-09)
(1.15312e-10 4.58818e-09 -1.72407e-09)
(-2.30215e-10 3.7902e-09 -4.34992e-10)
(-1.27793e-10 1.78617e-09 3.80827e-10)
(1.33779e-10 7.39958e-10 7.13173e-10)
(5.59498e-10 -1.72664e-09 1.02568e-09)
(1.08608e-09 -7.27421e-09 1.25599e-09)
(1.15475e-09 -8.63325e-09 7.82974e-10)
(1.331e-11 2.29913e-11 -1.13696e-09)
(-1.47344e-09 1.10787e-08 -1.68307e-09)
(-1.30128e-09 7.75323e-09 -3.54794e-10)
(-6.2637e-10 8.88142e-10 5.20288e-11)
(-1.90348e-09 8.18268e-09 2.62048e-11)
(-2.2603e-09 1.06809e-08 -3.45379e-10)
(-2.46428e-09 7.08015e-09 -1.60252e-09)
(3.37463e-09 -2.7944e-08 2.86898e-10)
(3.33597e-09 -1.44461e-08 6.60132e-10)
(4.34864e-10 -4.16202e-10 8.42054e-12)
(2.61809e-10 -5.76758e-10 -4.2209e-11)
(1.09889e-09 -2.37073e-09 -3.54173e-11)
(1.00586e-09 -4.09826e-09 -4.43753e-12)
(-1.16115e-09 1.0031e-08 1.81942e-10)
(-2.62204e-09 3.72933e-09 9.16935e-10)
(-9.05162e-09 1.80933e-08 2.52778e-10)
(-7.11041e-09 -6.48305e-09 1.60721e-09)
(7.05678e-09 -7.58506e-08 4.18866e-09)
(8.45236e-09 -4.09716e-08 4.86264e-09)
(2.41314e-09 -1.8502e-09 8.51424e-10)
(2.58513e-09 1.42832e-10 1.00582e-09)
(3.40919e-09 2.06509e-08 -8.52915e-10)
(3.73425e-10 2.87246e-08 -8.53558e-09)
(-1.25929e-09 5.76375e-09 -8.57915e-09)
(-7.62935e-10 -5.07015e-09 -2.60309e-09)
(-2.53971e-09 5.82779e-09 4.16867e-10)
(-8.86898e-09 2.40008e-09 2.97717e-08)
(-5.64186e-08 2.20786e-08 7.34152e-08)
(-4.20661e-08 -1.86408e-07 3.02536e-08)
(4.67992e-08 -3.00292e-07 -3.75164e-08)
(4.86106e-08 -6.95781e-08 -8.2045e-08)
(9.71184e-09 -1.15386e-09 -2.17006e-08)
(7.36751e-10 2.21756e-10 -2.6406e-09)
(3.5359e-10 1.05949e-09 -2.55395e-09)
(-3.61955e-10 1.23944e-09 -1.45114e-09)
(-3.77114e-10 9.24722e-10 7.97625e-11)
(-1.07108e-10 2.62789e-10 1.03482e-09)
(1.46201e-10 -1.02582e-09 1.21615e-09)
(5.98609e-10 -4.05564e-09 1.28971e-09)
(1.6969e-09 -8.11715e-09 1.54942e-09)
(1.9981e-09 -7.06998e-09 9.108e-10)
(-7.5031e-10 8.73553e-09 -8.9154e-10)
(-2.63116e-09 1.65111e-08 -5.09489e-10)
(-1.22322e-09 5.77293e-09 1.69396e-10)
(-9.63612e-10 2.80279e-09 2.86494e-11)
(-3.71421e-09 1.32824e-08 -1.72216e-10)
(-4.82909e-09 2.36743e-08 -2.04899e-09)
(-7.48195e-10 6.90268e-09 -1.65515e-09)
(4.80888e-09 -1.95536e-08 4.81091e-10)
(2.17154e-09 -3.44999e-09 9.20322e-11)
(1.49773e-10 -5.47468e-10 -4.57266e-12)
(5.9813e-10 -1.58759e-09 -4.97744e-11)
(1.6874e-09 -6.47719e-09 -1.95202e-11)
(-8.8355e-11 -3.73568e-10 -6.90632e-11)
(-1.89076e-09 7.89468e-09 8.03296e-10)
(-7.25237e-09 9.01581e-09 1.21183e-09)
(-1.41941e-08 4.24283e-08 9.50753e-10)
(2.3445e-10 -3.61995e-08 7.33764e-09)
(1.40114e-08 -5.62382e-08 1.34242e-08)
(6.84116e-09 -5.87399e-09 5.082e-09)
(4.74372e-09 -3.68461e-10 2.44308e-09)
(6.20489e-09 3.66718e-08 1.51419e-09)
(-1.41165e-09 5.16776e-08 -1.40692e-08)
(-5.17751e-09 1.1525e-09 -1.74481e-08)
(-1.11809e-09 -1.49493e-08 -7.92091e-09)
(-1.02707e-09 -1.11545e-08 -1.56615e-09)
(-5.78837e-09 2.65902e-09 1.56511e-08)
(-6.4479e-08 3.35585e-08 8.62512e-08)
(-6.67516e-08 2.92355e-09 5.15027e-08)
(4.89906e-08 -1.74224e-07 -2.95357e-08)
(7.03514e-08 -3.85406e-08 -1.19724e-07)
(1.52363e-08 -7.7537e-10 -3.54017e-08)
(6.76831e-10 -6.6649e-10 -1.97603e-09)
(2.43137e-10 -2.55004e-09 -1.51181e-09)
(-2.36742e-10 -1.9204e-09 -1.65284e-09)
(-2.48321e-10 -7.86739e-10 -1.32836e-09)
(-1.33621e-10 -5.02985e-10 -7.91422e-11)
(-4.49735e-11 -7.71608e-10 5.48e-10)
(7.3617e-11 -1.7214e-09 4.6592e-10)
(6.46585e-10 -4.73731e-09 5.89297e-10)
(2.33366e-09 -1.20254e-08 1.35968e-09)
(1.98654e-09 -1.08464e-08 1.85488e-09)
(-1.60734e-09 8.69073e-09 9.51982e-10)
(-2.61943e-09 1.188e-08 6.87438e-10)
(-8.7531e-10 4.77212e-09 3.77291e-10)
(-1.46814e-09 6.39783e-09 -5.5245e-12)
(-2.13524e-09 8.93355e-09 -8.27551e-10)
(-3.35043e-09 2.69605e-08 -3.30722e-09)
(1.46997e-09 1.15312e-09 -2.71844e-10)
(3.39959e-09 -5.21754e-09 5.97238e-11)
(5.81617e-10 -4.12376e-10 8.54992e-14)
(1.69666e-10 -6.55355e-10 -2.43227e-11)
(1.136e-09 -3.57067e-09 -7.28222e-11)
(1.10564e-09 -8.23376e-09 -6.43241e-11)
(-1.14426e-09 4.18469e-09 -3.72752e-10)
(-3.52402e-09 1.43663e-09 1.91196e-09)
(-1.38569e-08 3.71183e-08 1.00038e-09)
(-8.56164e-09 3.75459e-08 5.05969e-09)
(1.28933e-08 -1.36094e-08 1.84398e-08)
(1.11984e-08 -2.75597e-09 1.27419e-08)
(9.40124e-09 3.36779e-09 3.79201e-09)
(1.17312e-08 5.65428e-08 1.95955e-09)
(-5.31876e-09 5.10847e-08 -1.96645e-08)
(-1.18775e-08 -2.06741e-09 -2.6447e-08)
(-2.76255e-09 -8.15494e-09 -1.45679e-08)
(2.16959e-10 -1.15048e-08 -3.7813e-09)
(-1.78998e-09 -1.52575e-09 4.53073e-09)
(-5.55381e-08 1.98941e-08 6.71178e-08)
(-7.38859e-08 1.64056e-07 7.07531e-08)
(3.97105e-08 8.26584e-08 -1.02514e-08)
(7.50547e-08 2.58454e-08 -1.18136e-07)
(1.54055e-08 -3.91947e-11 -3.32284e-08)
(4.49312e-10 -5.87302e-10 -9.57232e-10)
(1.57567e-10 -2.22213e-09 -4.63321e-10)
(-8.31755e-11 -1.37667e-09 -9.88663e-10)
(-1.55939e-10 -6.33513e-10 -1.54863e-09)
(-1.01852e-10 -4.88481e-10 -1.29201e-09)
(-3.55682e-11 -3.3323e-10 -2.93693e-10)
(-3.10725e-12 -3.41057e-10 -1.83705e-12)
(1.00895e-10 -7.9922e-10 4.61779e-12)
(9.52378e-10 -4.14681e-09 1.93495e-10)
(2.39354e-09 -1.31632e-08 1.78408e-09)
(1.02316e-09 -8.29213e-09 3.21276e-09)
(-1.7267e-09 6.42528e-09 2.32669e-09)
(-1.87994e-09 9.61186e-09 1.66332e-09)
(-8.19567e-10 6.52307e-09 1.11952e-10)
(-1.37583e-09 7.28875e-09 -6.46955e-10)
(-1.89916e-09 1.10367e-08 -2.96723e-09)
(-7.21858e-10 1.45595e-08 -9.204e-10)
(1.75811e-09 -1.39097e-09 -8.08338e-14)
(9.38232e-10 -5.32063e-10 5.15856e-12)
(6.57434e-11 -1.01001e-10 -1.63914e-12)
(3.60431e-10 -9.17161e-10 -1.06899e-10)
(1.20422e-09 -5.82157e-09 -4.15359e-10)
(-2.01939e-10 -3.60396e-09 -4.54373e-10)
(-1.62405e-09 1.26881e-09 -4.94866e-10)
(-7.63369e-09 1.17212e-08 2.87363e-09)
(-8.11789e-09 5.84888e-08 2.75299e-09)
(6.76629e-09 4.12725e-08 1.19006e-08)
(9.48974e-09 4.74442e-09 1.28463e-08)
(1.50912e-08 1.27059e-08 3.87794e-09)
(1.43468e-08 3.1888e-08 -6.69323e-10)
(-1.17113e-08 -9.55509e-09 -2.16201e-08)
(-1.53022e-08 -8.73883e-09 -2.76468e-08)
(-2.67112e-09 -1.31606e-09 -1.49844e-08)
(5.46175e-11 -2.6623e-09 -4.98823e-09)
(-4.68405e-10 -2.49968e-09 3.13065e-11)
(-3.51634e-08 6.29024e-09 3.38771e-08)
(-5.4547e-08 2.08327e-07 7.06875e-08)
(2.47096e-08 2.56316e-07 9.97088e-09)
(5.47583e-08 5.3497e-08 -7.19811e-08)
(1.03908e-08 -6.2616e-10 -1.60142e-08)
(3.01734e-10 -2.82574e-10 -1.58806e-10)
(1.07841e-10 -1.02405e-09 -6.29318e-12)
(3.74786e-11 -6.8603e-10 -3.59296e-10)
(-9.56829e-11 -2.75916e-10 -8.39315e-10)
(-8.20719e-11 -1.91072e-10 -8.78161e-10)
(-1.90226e-11 -1.38192e-10 -4.58542e-10)
(-3.5317e-12 -7.07087e-10 -5.43096e-10)
(8.10733e-12 -6.77236e-10 -7.12142e-10)
(2.18758e-10 -6.03133e-10 -6.31724e-11)
(1.18714e-09 -4.96896e-09 2.21277e-10)
(1.69744e-09 -1.05923e-08 2.69986e-09)
(5.5809e-10 -4.0718e-09 4.15588e-09)
(-7.53155e-10 6.13239e-09 4.34038e-09)
(-1.65937e-09 1.41805e-08 1.94106e-09)
(-2.84789e-09 1.84767e-08 -5.62378e-10)
(-2.03522e-09 2.59425e-09 -1.48517e-09)
(-8.08081e-10 7.95202e-09 -9.41292e-10)
(5.27339e-10 -7.16262e-11 -2.07722e-11)
(8.04671e-10 -1.07109e-09 3.74818e-11)
(1.02813e-10 -1.21863e-11 1.09597e-12)
(6.31689e-11 -4.61615e-12 -3.68435e-11)
(5.53713e-10 -1.33966e-09 -7.63393e-10)
(1.87429e-10 -4.44986e-09 -2.44731e-09)
(-6.31495e-10 6.74718e-11 -1.32482e-09)
(-2.96669e-09 1.81908e-09 1.4129e-10)
(-2.64979e-09 2.91988e-08 5.90061e-09)
(2.69379e-09 3.89841e-08 9.86543e-09)
(5.61639e-09 4.36241e-09 7.8376e-09)
(1.42831e-08 2.06647e-08 2.62236e-09)
(6.97155e-09 -2.52128e-08 -3.30758e-09)
(-1.2846e-08 -5.45574e-08 -1.92001e-08)
(-9.86086e-09 -1.04206e-08 -1.87005e-08)
(-1.54693e-09 -4.61011e-11 -7.70288e-09)
(-4.82077e-12 -7.86893e-10 -3.31511e-09)
(-1.22233e-10 -9.05853e-10 -1.18066e-09)
(-1.51477e-08 1.34207e-09 9.409e-09)
(-2.54849e-08 1.52012e-07 4.12131e-08)
(1.00519e-08 2.33582e-07 2.02484e-08)
(2.53587e-08 3.87684e-08 -1.62953e-08)
(5.08339e-09 -3.04187e-09 1.0834e-09)
(3.84413e-10 -1.10456e-09 5.11204e-10)
(8.13876e-11 -2.22606e-10 1.85326e-10)
(5.51321e-11 -2.97698e-10 -6.12697e-11)
(-6.24041e-11 -2.0229e-10 -3.55228e-10)
(-7.61388e-11 -6.90612e-11 -2.49743e-10)
(-1.41321e-10 -9.60369e-10 -4.19821e-10)
(-1.11742e-10 -3.54673e-09 -2.72215e-09)
(1.31486e-10 -3.13615e-09 -5.51193e-09)
(1.63269e-10 -5.25181e-10 -2.78776e-09)
(5.04837e-10 -1.03943e-09 -4.45128e-11)
(1.13404e-09 -4.41406e-09 7.50287e-10)
(1.40802e-09 -5.17251e-09 4.12928e-09)
(1.68299e-09 -6.50546e-10 7.289e-09)
(-4.99245e-10 1.25118e-08 6.9689e-09)
(-3.43011e-09 2.07304e-08 3.26527e-09)
(-4.22724e-09 5.78884e-09 -1.15797e-09)
(-1.30618e-09 2.60198e-09 -3.50564e-10)
(-1.2215e-10 -3.18297e-09 -1.09272e-11)
(9.65326e-10 -4.47695e-09 1.85551e-13)
(2.99231e-10 -2.18609e-10 -5.44186e-12)
(9.58706e-11 2.60236e-10 2.2981e-13)
(2.8249e-10 2.3276e-09 -5.20223e-11)
(7.0787e-11 9.47546e-10 -2.03434e-09)
(-3.31977e-10 -2.20818e-10 -6.63079e-09)
(-1.63519e-09 2.21448e-10 -1.12079e-09)
(-4.14713e-10 6.10467e-09 1.52005e-09)
(1.66188e-09 1.07887e-08 1.53564e-08)
(5.81497e-09 2.4645e-09 1.39081e-08)
(8.59334e-09 1.37488e-08 3.70842e-09)
(-1.62779e-09 -3.64755e-08 -6.21519e-09)
(-8.30157e-09 -3.54288e-08 -1.39754e-08)
(-3.73592e-09 -5.57047e-09 -8.93452e-09)
(-6.43905e-10 1.0388e-12 -2.76909e-09)
(-1.30544e-10 4.54878e-10 -1.51635e-09)
(-3.0555e-11 -2.31631e-10 -2.16843e-09)
(-3.21048e-09 8.92678e-10 5.04118e-10)
(-5.88057e-09 6.59432e-08 1.17801e-08)
(1.02966e-09 1.11019e-07 2.00925e-08)
(5.1513e-09 1.7081e-08 2.09782e-08)
(2.06832e-09 -6.21557e-09 1.37086e-08)
(9.20559e-10 -3.01985e-09 2.34095e-09)
(2.90149e-10 -4.2066e-11 1.9136e-10)
(4.0167e-11 -6.75558e-11 9.36e-13)
(-4.82561e-11 -9.67474e-11 -1.43315e-10)
(-2.51393e-10 -8.89426e-11 -2.54747e-11)
(-7.80259e-10 -3.87504e-09 -7.01998e-10)
(-4.76503e-10 -1.1272e-08 -5.38566e-09)
(6.67725e-10 -9.57129e-09 -1.13466e-08)
(6.91129e-10 -2.13579e-09 -8.48657e-09)
(3.92532e-10 -1.50643e-10 -1.27067e-09)
(8.36136e-10 -1.34027e-09 -1.90905e-12)
(1.3074e-09 -1.8566e-09 2.02272e-09)
(2.92948e-09 -2.10381e-09 7.52868e-09)
(2.47685e-09 4.48403e-09 1.29837e-08)
(-2.46693e-09 1.12738e-08 1.0617e-08)
(-6.26085e-09 7.8945e-09 -3.04912e-10)
(-2.96026e-09 6.21322e-10 -4.27809e-11)
(-1.14415e-09 -3.13216e-09 -3.53065e-11)
(1.51618e-09 -6.81669e-09 -4.91247e-12)
(1.2461e-09 -9.79605e-10 -2.67048e-11)
(6.85242e-10 2.78615e-11 8.32545e-13)
(7.50705e-10 3.00865e-09 1.33939e-11)
(-4.26473e-10 5.35501e-09 -8.76725e-11)
(-8.40952e-10 1.28858e-09 -4.9862e-09)
(-1.55108e-09 1.01112e-10 -9.84438e-09)
(-2.86003e-10 2.39542e-10 -2.45985e-10)
(1.90673e-09 -1.1331e-09 5.6721e-09)
(6.3229e-09 -8.11496e-11 2.20632e-08)
(5.30826e-09 -3.31633e-09 1.15646e-08)
(-4.21604e-09 -1.36709e-08 -2.71023e-09)
(-5.72612e-09 -1.08222e-08 -7.38221e-09)
(-1.79349e-09 -1.90245e-09 -4.75857e-09)
(-1.60573e-10 -3.76103e-12 -2.47235e-09)
(-4.89234e-11 6.9187e-10 -1.79247e-09)
(-2.42062e-11 6.31812e-10 -2.48338e-09)
(-1.31303e-10 8.02241e-10 -1.58529e-09)
(-4.67858e-10 1.35389e-08 1.21484e-09)
(-1.01429e-09 2.44758e-08 1.48831e-08)
(-1.34186e-09 5.8759e-09 3.31468e-08)
(4.58695e-10 -6.19988e-09 2.3444e-08)
(1.84526e-09 -3.02622e-09 4.65675e-09)
(7.84936e-10 -2.89102e-11 7.6724e-11)
(4.32534e-11 1.3622e-10 -2.64318e-11)
(-6.91264e-11 1.01448e-10 -7.26653e-11)
(-9.86069e-10 -9.6237e-11 -5.19077e-12)
(-2.82207e-09 -6.05229e-09 -1.01639e-09)
(-1.47314e-09 -2.2737e-08 -8.04939e-09)
(2.3201e-09 -2.39388e-08 -1.65244e-08)
(2.42262e-09 -7.33086e-09 -1.24352e-08)
(7.11911e-10 -1.64915e-10 -2.81556e-09)
(7.45905e-10 -6.88945e-10 -1.66973e-10)
(1.2309e-09 -7.09086e-10 4.18681e-10)
(3.11114e-09 -9.42252e-10 4.33134e-09)
(4.80095e-09 -4.34665e-10 1.42246e-08)
(-1.27167e-09 -1.32559e-10 1.50659e-08)
(-6.90452e-09 5.3516e-09 2.36565e-09)
(-4.12432e-09 1.62796e-10 3.97772e-12)
(-2.03286e-09 2.76828e-09 -1.68517e-11)
(1.4918e-09 -4.45403e-11 -9.42268e-11)
(2.05682e-09 -8.07211e-10 -1.58391e-10)
(1.11609e-09 -2.31825e-10 -8.52866e-11)
(1.67833e-09 -1.39603e-09 9.25459e-11)
(-3.43985e-10 1.66675e-09 6.78049e-11)
(-1.70372e-09 2.37993e-09 -1.2835e-09)
(-1.92837e-09 9.79675e-11 -1.31404e-08)
(-7.62728e-10 -8.44478e-10 -7.22136e-09)
(1.54951e-09 -6.42522e-09 1.41162e-10)
(5.17026e-09 -2.01671e-09 2.16452e-08)
(5.24953e-09 -1.15569e-08 3.71502e-08)
(-3.39428e-09 -5.92917e-09 1.21675e-08)
(-5.37794e-09 -5.71179e-09 -1.34708e-09)
(-1.00418e-09 -1.12941e-09 -2.4722e-09)
(9.36501e-12 -2.13582e-10 -4.27879e-09)
(3.33167e-11 1.76563e-09 -6.85821e-09)
(-1.2873e-12 9.69077e-09 -6.24928e-09)
(-3.04041e-11 4.83825e-09 -2.66626e-09)
(-2.34426e-11 1.36883e-09 -2.21104e-10)
(-8.35965e-10 1.87049e-09 8.85062e-09)
(-2.49227e-09 9.6802e-10 3.33035e-08)
(-1.78375e-10 -2.14402e-09 2.67346e-08)
(2.49781e-09 7.84804e-11 5.78991e-09)
(1.09627e-09 2.48155e-11 9.01607e-11)
(7.5193e-11 5.71885e-10 -2.97398e-11)
(-1.0912e-10 6.33393e-10 -6.49095e-11)
(-1.8437e-09 6.10379e-11 -4.76825e-12)
(-6.7073e-09 -1.34311e-09 -1.10066e-09)
(-5.22293e-09 -2.26965e-08 -1.05237e-08)
(4.67354e-09 -4.55975e-08 -2.4254e-08)
(6.95762e-09 -2.41916e-08 -1.80226e-08)
(2.16032e-09 -1.86339e-09 -3.95009e-09)
(6.97952e-10 -5.799e-10 -2.70648e-10)
(1.24666e-09 -6.54739e-10 -1.92374e-10)
(2.98503e-09 -8.13477e-10 1.4545e-09)
(5.54793e-09 -3.04485e-09 9.65195e-09)
(-7.7985e-11 -7.74156e-09 1.294e-08)
(-6.10563e-09 2.35892e-09 4.63434e-09)
(-3.6126e-09 6.70692e-10 8.79226e-11)
(-1.11394e-09 5.60147e-09 2.84156e-10)
(4.48576e-10 6.09667e-09 -1.09918e-10)
(1.10588e-09 3.16648e-10 -3.19254e-10)
(4.64283e-10 -3.6999e-10 -2.72659e-10)
(1.22264e-09 -2.7944e-09 1.23238e-10)
(6.95097e-10 -4.57279e-09 1.09413e-10)
(-1.22092e-09 2.09457e-09 -1.70366e-10)
(-2.47697e-09 7.04663e-10 -1.04737e-08)
(-2.18888e-09 3.04619e-09 -1.49254e-08)
(1.59296e-09 -7.88287e-09 -1.95422e-10)
(4.90666e-09 -1.0347e-09 1.52671e-08)
(4.14337e-09 -1.12117e-08 5.82356e-08)
(-2.55192e-09 -1.25428e-08 2.41947e-08)
(-4.32571e-09 -3.37022e-09 6.76237e-10)
(-2.29831e-10 -6.43624e-09 -6.58783e-10)
(6.88262e-10 -1.17162e-09 -3.76202e-09)
(2.90688e-09 4.4821e-09 -1.55844e-08)
(8.9304e-10 4.44668e-08 -2.69688e-08)
(-2.63251e-09 3.16827e-08 -1.13877e-08)
(-1.40224e-09 3.54342e-09 -1.6355e-10)
(-1.15276e-09 2.20083e-11 4.48734e-09)
(-2.42397e-09 -3.45667e-10 2.4954e-08)
(2.58595e-10 3.0097e-09 2.17455e-08)
(2.42664e-09 2.31901e-09 4.71599e-09)
(9.00289e-10 3.50243e-11 6.28304e-11)
(2.22083e-10 7.67317e-10 4.7676e-11)
(-2.17869e-10 1.48341e-09 -1.17992e-10)
(-1.4886e-09 3.63378e-10 2.47446e-13)
(-9.22998e-09 5.18435e-09 7.6575e-12)
(-1.43291e-08 3.32256e-09 -6.49204e-09)
(1.6283e-09 -4.74171e-08 -2.95911e-08)
(1.50413e-08 -6.19585e-08 -3.12473e-08)
(7.62845e-09 -1.45023e-08 -8.33124e-09)
(1.11263e-09 -3.99057e-10 -4.21971e-10)
(1.15935e-09 -8.80524e-10 -6.62708e-10)
(2.40888e-09 -4.4005e-10 -1.96133e-10)
(4.9272e-09 -4.22604e-09 4.57834e-09)
(7.79875e-10 -1.02272e-08 6.64291e-09)
(-4.20832e-09 -1.90242e-09 4.20278e-09)
(-3.10621e-09 2.06988e-09 1.44384e-10)
(-3.35684e-10 2.38568e-09 2.99749e-10)
(-1.45832e-10 3.3166e-09 1.7118e-12)
(1.9167e-11 6.52097e-10 -4.54562e-11)
(1.55969e-10 -8.21336e-10 -7.34598e-11)
(3.37165e-10 -1.24476e-09 1.04949e-10)
(1.1633e-09 -3.63386e-09 1.10803e-10)
(-1.0343e-11 -1.26167e-09 -4.23357e-11)
(-1.55703e-09 2.43518e-09 -5.68932e-09)
(-3.45172e-09 4.71863e-09 -1.56901e-08)
(1.968e-10 3.36793e-09 -1.01329e-09)
(4.09788e-09 -1.27162e-09 7.45196e-09)
(1.56245e-09 -7.95538e-09 4.8644e-08)
(-8.91155e-10 -1.21415e-08 2.00691e-08)
(-3.46974e-09 -2.16003e-09 3.30361e-10)
(-3.58224e-10 -6.696e-09 -2.13017e-09)
(3.54596e-09 -1.04837e-09 -2.36769e-09)
(1.48125e-08 9.33048e-10 -1.05083e-08)
(8.89207e-09 4.48151e-08 -4.77463e-08)
(-1.32801e-08 6.96559e-08 -3.77616e-08)
(-1.034e-08 1.5102e-08 -2.82731e-09)
(-2.0879e-09 5.4179e-11 1.02066e-09)
(-1.51232e-09 9.00724e-10 1.35042e-08)
(6.56586e-10 3.0229e-09 1.32899e-08)
(1.52246e-09 7.64975e-10 2.75129e-09)
(6.03989e-10 -3.46995e-12 4.57126e-11)
(5.38444e-10 -6.96914e-11 -2.34253e-10)
(-2.31278e-10 2.112e-09 -5.50824e-10)
(-6.5789e-10 3.15002e-09 5.66337e-11)
(-5.46779e-09 4.18961e-09 5.21244e-10)
(-2.16554e-08 2.47924e-08 4.69439e-09)
(-1.65771e-08 6.94958e-10 -1.20344e-08)
(1.69924e-08 -8.39315e-08 -4.3357e-08)
(2.19299e-08 -5.69852e-08 -2.29147e-08)
(5.15509e-09 -4.8824e-09 -1.79835e-09)
(1.24218e-09 -1.46936e-09 -6.68445e-10)
(1.93959e-09 5.1959e-11 -1.47807e-09)
(3.20018e-09 -2.4712e-09 3.19785e-10)
(4.037e-11 -6.975e-09 -3.09135e-10)
(-1.81831e-09 -6.27244e-09 2.02942e-09)
(-2.10145e-09 -7.87179e-12 5.65179e-10)
(-7.40106e-10 1.13846e-10 2.81037e-11)
(-1.21892e-10 3.61033e-10 1.52562e-12)
(-2.90265e-10 4.19956e-10 -2.7323e-14)
(-1.95425e-10 1.95831e-10 3.92957e-12)
(2.8894e-10 -3.33445e-10 7.34517e-11)
(6.40322e-10 -7.82617e-10 7.73806e-11)
(8.6657e-10 -3.03055e-09 -2.62118e-11)
(-3.91667e-10 1.2229e-09 -1.63568e-09)
(-1.71764e-09 1.65907e-09 -8.87145e-09)
(-4.4653e-10 8.56865e-09 -2.00327e-09)
(8.61411e-10 -4.8974e-10 2.44652e-09)
(4.47434e-10 -2.74263e-09 2.27636e-08)
(-6.10966e-10 -3.9808e-09 8.11776e-09)
(-2.42878e-09 -5.94862e-10 8.7754e-10)
(1.88883e-10 4.57769e-09 -2.88402e-09)
(3.17364e-09 7.78563e-10 -1.66599e-09)
(1.83957e-08 -3.5542e-09 -6.15853e-10)
(2.51234e-08 -1.94522e-08 -1.85221e-08)
(-1.23624e-08 2.78875e-08 -4.92246e-08)
(-2.58557e-08 2.17396e-08 -1.44438e-08)
(-6.2344e-09 5.04302e-10 2.46758e-10)
(-1.43602e-09 9.92969e-10 5.17894e-09)
(1.67776e-10 -1.82072e-09 7.2136e-09)
(1.41689e-09 -1.74304e-09 1.63428e-09)
(6.26675e-10 -6.50045e-11 -1.84868e-10)
(9.60676e-10 -5.46941e-10 -2.38127e-10)
(9.57639e-10 1.97961e-09 -8.398e-10)
(-8.17202e-10 7.31149e-09 1.4864e-09)
(-1.72832e-09 5.38697e-09 2.53129e-09)
(-1.48429e-08 1.46602e-08 3.98779e-09)
(-3.61295e-08 4.60581e-08 1.25304e-08)
(-6.19515e-09 -2.78248e-08 -2.80442e-08)
(3.49702e-08 -9.44601e-08 -4.36082e-08)
(2.09376e-08 -3.0783e-08 -9.751e-09)
(2.95014e-09 -1.53581e-09 -1.42295e-10)
(2.09226e-09 -1.64887e-09 -1.39919e-09)
(1.35806e-09 7.31455e-11 -2.76996e-09)
(-1.69759e-09 -2.04477e-09 -5.16634e-09)
(-1.65201e-09 -4.72032e-09 -2.21031e-09)
(-6.399e-10 -1.80186e-09 -2.04988e-10)
(-1.45207e-10 -1.77614e-10 -4.047e-12)
(-2.51014e-11 5.76492e-12 2.88824e-12)
(-1.52072e-11 2.80665e-10 2.72509e-11)
(-1.10811e-10 8.8223e-10 8.7612e-11)
(-5.1675e-11 5.84164e-10 4.87856e-10)
(1.31953e-10 -3.12443e-11 6.20599e-10)
(7.05884e-10 -9.77563e-10 4.37155e-11)
(2.09662e-10 -1.62743e-09 -3.93677e-10)
(-6.74916e-10 6.09467e-10 -3.8706e-09)
(-6.01357e-10 2.11072e-09 -1.69645e-09)
(-1.19159e-10 4.0535e-10 1.31077e-10)
(2.72971e-10 -8.03425e-10 4.72549e-09)
(-5.572e-11 -9.43492e-11 2.27667e-09)
(-1.32832e-10 1.44806e-09 3.95254e-10)
(1.37812e-10 5.96506e-09 -3.97203e-10)
(3.11345e-10 9.64816e-10 2.98762e-11)
(6.29717e-09 -1.82948e-09 8.27698e-11)
(1.9863e-08 -3.8723e-08 6.1206e-10)
(3.2053e-09 -3.88617e-08 -1.88912e-08)
(-1.97516e-08 1.38282e-09 -1.98972e-08)
(-1.00084e-08 3.61354e-10 -7.69558e-10)
(-2.45612e-09 3.1625e-10 4.97178e-10)
(-3.9397e-10 -1.41706e-09 1.29822e-09)
(2.24013e-09 -8.92756e-10 -1.84819e-09)
(1.08309e-09 -5.23255e-11 -1.04137e-09)
(1.31761e-09 -3.21871e-10 -5.71646e-11)
(2.80849e-09 -6.13814e-10 -3.37001e-10)
(7.30185e-10 2.87074e-09 3.56293e-09)
(-2.89797e-09 7.8566e-09 1.10567e-08)
(-5.99162e-09 3.97971e-09 4.73885e-09)
(-3.16485e-08 3.5223e-08 1.14345e-08)
(-3.71621e-08 5.24558e-08 4.5321e-09)
(1.93854e-08 -4.96062e-08 -4.14615e-08)
(4.09207e-08 -5.77229e-08 -2.23654e-08)
(1.2792e-08 -6.88092e-09 -1.39023e-09)
(2.57138e-09 -2.77541e-09 -3.62318e-10)
(1.24754e-09 -8.4314e-10 -3.14515e-09)
(-1.50187e-09 -2.35564e-09 -6.30013e-09)
(-1.72764e-09 -1.22772e-09 -5.26962e-09)
(-2.34818e-10 -3.45816e-10 -1.21652e-09)
(1.27745e-12 -7.7952e-11 -5.73069e-11)
(7.16771e-11 -1.74413e-11 1.98369e-11)
(7.06017e-11 1.90618e-10 5.04189e-10)
(-6.93623e-11 6.00947e-10 1.34875e-09)
(-8.1564e-11 4.66172e-10 1.04261e-09)
(-7.91565e-13 1.32042e-10 4.88347e-10)
(1.74053e-10 -5.01305e-11 2.31724e-10)
(2.51039e-10 -1.3984e-09 -1.61075e-10)
(-1.64997e-10 -3.18517e-10 -1.74093e-09)
(-5.21148e-10 6.432e-11 -2.36841e-09)
(-3.31572e-10 6.67046e-10 -2.70568e-10)
(2.43525e-10 2.10166e-10 1.10636e-09)
(3.31745e-10 2.2292e-10 2.02574e-09)
(2.51182e-11 4.82641e-10 8.70699e-10)
(-2.05233e-11 4.67004e-10 1.45492e-09)
(7.60252e-12 -4.56405e-10 8.78425e-10)
(2.01803e-09 -2.5272e-10 5.45874e-11)
(9.2158e-09 -1.27694e-08 9.98518e-10)
(3.84079e-09 -3.42076e-08 -2.18324e-09)
(-9.06222e-09 -1.26829e-08 -7.44843e-09)
(-6.31649e-09 -6.69344e-11 -1.47019e-09)
(-2.12029e-09 8.31745e-10 -3.59288e-10)
(-3.1108e-10 2.98835e-09 -3.10301e-09)
(1.93779e-09 1.45013e-09 -3.39367e-09)
(8.32943e-10 3.88526e-11 -9.09151e-10)
(6.74147e-10 -2.44404e-10 -1.33725e-11)
(2.184e-09 -2.63114e-09 -1.68614e-10)
(2.78564e-09 -4.78306e-09 2.84625e-10)
(-1.11418e-09 2.70838e-09 7.10211e-09)
(-3.6026e-09 9.19917e-09 1.19173e-08)
(-1.50563e-08 9.76348e-09 3.13861e-09)
(-4.06708e-08 6.47431e-08 1.76207e-08)
(-1.23653e-08 4.02056e-08 -1.46693e-08)
(3.78464e-08 -3.42157e-08 -2.73817e-08)
(2.63421e-08 -1.60027e-08 -4.49735e-09)
(4.72516e-09 -1.51277e-09 -1.72362e-11)
(1.69416e-09 -4.45175e-09 -1.70893e-09)
(-1.36733e-10 -3.39806e-09 -2.64096e-09)
(-6.5847e-10 -5.38198e-10 -3.14326e-09)
(-1.18068e-10 -3.59222e-10 -9.99305e-10)
(6.31653e-13 -2.14982e-10 -6.03041e-11)
(9.65677e-11 -6.81005e-12 6.48616e-12)
(2.79164e-10 9.84873e-11 3.20362e-10)
(2.00265e-11 2.05247e-09 1.69671e-09)
(-2.78539e-10 3.26789e-09 2.5859e-09)
(-1.07479e-10 9.38022e-10 9.71415e-10)
(1.0515e-11 7.4459e-12 5.84821e-11)
(7.37409e-11 -3.4181e-10 -1.55069e-10)
(-1.04858e-11 -4.97852e-10 -1.2669e-09)
(-1.2633e-10 1.90147e-11 -2.56727e-09)
(-2.558e-11 5.93781e-10 -1.18975e-09)
(5.82126e-11 8.42476e-10 2.11972e-09)
(3.76873e-11 1.94752e-10 5.44872e-09)
(-2.95221e-11 -1.96766e-12 4.60255e-09)
(-3.06291e-10 -8.69319e-10 3.33863e-09)
(-1.00999e-11 -2.31423e-09 -2.36513e-10)
(7.02687e-10 -9.43833e-10 -1.31765e-10)
(4.31572e-09 -3.99554e-09 -3.12282e-10)
(3.18175e-09 -1.72778e-08 1.20099e-09)
(-4.11755e-09 -9.54455e-09 -1.71435e-10)
(-3.76366e-09 1.80534e-10 -1.06835e-09)
(-9.92565e-10 9.68342e-10 -2.34553e-10)
(-9.92965e-11 3.84689e-09 -1.94508e-09)
(8.24988e-10 1.56703e-09 -2.42555e-09)
(2.77998e-10 4.48677e-11 -6.61247e-10)
(7.49576e-11 -2.58411e-10 7.99147e-12)
(6.47404e-10 -1.40358e-09 -7.38317e-12)
(3.13548e-09 -4.092e-09 -1.26087e-09)
(3.77421e-09 3.35648e-09 -4.05637e-09)
(-2.77957e-09 2.30605e-08 7.59934e-09)
(-6.13028e-09 1.23193e-08 8.31204e-09)
(-2.1868e-08 2.81711e-08 7.66904e-09)
(-2.58512e-08 7.1376e-08 1.62903e-08)
(1.36734e-08 2.04053e-08 -1.19969e-08)
(2.7424e-08 -1.12228e-08 -8.72587e-09)
(8.01278e-09 -1.9566e-09 -7.29908e-10)
(7.87803e-10 -3.50823e-09 -3.71385e-10)
(-3.57717e-11 -2.44465e-09 -2.44579e-10)
(-1.9356e-10 -2.96721e-09 -5.61182e-10)
(-7.19653e-11 -3.43563e-09 -8.91067e-10)
(1.92122e-10 -1.25447e-09 -3.27247e-10)
(2.38789e-10 -1.6252e-11 3.56e-10)
(1.16374e-09 3.24292e-10 1.60038e-10)
(1.63711e-09 3.47844e-09 1.00417e-09)
(-6.64422e-10 7.49014e-09 1.35347e-09)
(-1.75475e-09 4.41453e-09 2.06963e-09)
(-5.01804e-10 1.96904e-10 3.14079e-10)
(-4.0971e-12 -2.06985e-10 -2.59938e-11)
(1.42945e-11 -7.93796e-10 -4.59278e-10)
(2.88178e-11 -5.69467e-11 -7.93208e-10)
(8.24406e-11 1.24088e-10 -8.73825e-12)
(4.67494e-11 2.12957e-10 3.23899e-09)
(-9.48654e-11 4.30723e-11 5.75072e-09)
(-5.45242e-10 -2.66453e-11 3.79044e-09)
(-1.24259e-09 -1.77058e-10 5.76859e-10)
(-3.08975e-11 -5.75762e-11 -2.71945e-09)
(1.2444e-09 -4.41984e-10 -1.9402e-09)
(8.82116e-10 -9.44957e-10 -8.6293e-10)
(9.05266e-10 -7.8508e-09 -7.62193e-10)
(-1.24488e-10 -6.46447e-09 -4.10137e-10)
(-8.90377e-10 -1.82162e-10 -1.31894e-09)