/*--------------------------------*- C++ -*----------------------------------*\
| =========                 |                                                 |
| \\      /  F ield         | OpenFOAM: The Open Source CFD Toolbox           |
|  \\    /   O peration     | Version:  5.0                                   |
|   \\  /    A nd           | Web:      www.OpenFOAM.org                      |
|    \\/     M anipulation  |                                                 |
\*---------------------------------------------------------------------------*/
FoamFile
{
    version     2.0;
    format      ascii;
    class       volScalarField;
    location    "50.4676134421789371";
    object      VVT;
}
// * * * * * * * * * * * * * * * * * * * * * * * * * * * * * * * * * * * * * //

dimensions      [0 2 -3 0 0 0 0];

internalField   nonuniform List<scalar> 
60000
(
1.25064e-09
4.73246e-10
1.29442e-10
1.99282e-11
-2.89381e-10
-1.92864e-10
5.99985e-11
-3.22529e-11
-5.969e-11
3.26971e-10
8.12686e-10
3.25796e-10
-7.85657e-11
1.99934e-11
-6.56462e-11
-3.25614e-10
-1.09502e-09
-1.4967e-09
-5.40069e-10
-1.25851e-09
-2.78593e-09
-1.20148e-10
1.08897e-09
-2.08417e-09
-2.18039e-09
1.56488e-09
3.19498e-09
1.5546e-09
-1.42959e-10
-3.27703e-10
4.27793e-10
8.52329e-10
1.63884e-09
2.16125e-09
2.05834e-09
2.69197e-10
1.57409e-10
4.57794e-11
9.87363e-10
1.70875e-09
4.11897e-11
4.05197e-12
-3.14593e-11
-2.9812e-10
-4.346e-10
-1.91463e-10
5.7644e-11
9.25314e-11
1.24206e-09
9.9776e-10
-1.11726e-09
-2.18859e-09
-1.11343e-09
2.17185e-10
7.01286e-10
2.61163e-10
-1.26245e-09
-2.13732e-09
-9.72711e-10
-9.81009e-09
-2.09365e-08
8.35872e-09
1.11907e-08
-1.00309e-08
-8.47995e-09
1.69206e-09
4.87377e-09
2.93918e-09
-2.9553e-10
-7.227e-10
2.3908e-09
4.86116e-09
4.12409e-09
1.75734e-09
-8.43794e-10
-1.73446e-09
-4.06278e-10
1.98545e-09
1.48277e-09
1.16288e-10
6.96725e-10
-1.44359e-10
-3.97795e-10
-1.5852e-10
-4.47874e-10
-4.48255e-10
-1.01735e-10
4.01116e-10
2.88157e-09
3.41136e-09
1.15377e-09
-1.31939e-09
-2.14707e-09
-2.31982e-10
7.0676e-10
2.21253e-10
-1.533e-09
-2.78318e-09
-2.14291e-09
-3.15118e-09
-2.64743e-08
1.44212e-08
1.59172e-08
-2.93767e-08
-1.65361e-08
-1.69792e-09
6.43422e-10
7.90531e-10
6.76428e-10
4.92935e-10
6.80131e-10
1.50347e-09
1.22429e-09
7.37764e-10
5.13997e-10
3.36992e-10
-7.70391e-10
1.29784e-09
1.61422e-09
7.7072e-11
2.68364e-09
4.65819e-09
3.22806e-10
-1.33565e-10
-5.02711e-10
-8.19115e-10
-3.54107e-10
8.63823e-10
1.92902e-09
3.50189e-09
2.24637e-09
4.07144e-09
6.12945e-10
-3.82406e-10
5.11652e-11
-9.29111e-10
-1.74119e-09
-2.21822e-09
-2.36016e-09
3.51016e-09
-3.04456e-08
-1.20921e-09
2.23476e-08
-4.18557e-08
-1.05548e-08
2.78122e-09
1.61776e-09
1.54484e-09
1.59908e-09
7.40389e-10
-3.69471e-10
-8.04848e-10
-6.16107e-10
-4.93339e-10
1.0857e-09
3.26841e-09
1.22052e-09
1.74483e-10
1.9559e-09
6.56743e-10
2.28387e-10
6.70054e-09
3.5358e-09
4.6888e-12
-3.84273e-10
-1.24977e-09
-9.92338e-10
1.12122e-09
6.76713e-10
4.41429e-09
2.05092e-09
7.52771e-09
5.13404e-09
-6.01769e-10
-4.59422e-10
-4.05424e-09
-3.64471e-09
1.75991e-10
-2.37841e-09
4.31817e-09
-2.25995e-08
-4.10727e-08
3.55152e-08
-4.83808e-08
1.93418e-09
8.32243e-09
2.40538e-09
2.25699e-09
1.34415e-09
3.99268e-10
-7.20222e-10
-1.30838e-09
-1.55677e-09
-2.47565e-09
-2.59076e-09
2.06536e-09
3.86946e-09
6.38949e-10
7.58589e-10
2.03219e-09
-2.33192e-10
-1.02087e-09
4.55807e-09
2.93685e-10
-9.03836e-12
-7.80905e-10
-1.85973e-09
-1.76648e-10
1.23347e-09
1.13397e-09
2.46088e-09
4.14885e-09
4.54887e-09
-3.53344e-09
6.01882e-11
-8.82481e-09
-9.76744e-09
6.48161e-09
1.93756e-09
-2.78697e-09
-8.97515e-09
-6.91166e-08
2.88572e-08
-3.33557e-08
3.36751e-08
1.86922e-08
2.44006e-09
1.45989e-09
2.68265e-10
3.59114e-10
-4.11361e-10
-8.0102e-10
-7.28522e-10
-1.88874e-09
-5.01062e-09
-4.78803e-09
1.47553e-09
1.14729e-09
-7.2699e-10
1.05249e-09
6.92614e-10
-4.8185e-09
-1.12218e-09
-1.94601e-10
-1.34975e-10
-1.00117e-10
-1.29899e-09
-1.71582e-09
1.75224e-09
-1.66062e-09
-1.9175e-09
-3.71054e-09
-3.43503e-09
-1.18609e-08
3.33047e-09
-8.97666e-09
-1.26631e-08
9.56303e-09
1.02451e-08
-4.20699e-09
-8.23656e-09
-6.5893e-08
-1.52408e-08
5.94733e-09
7.02905e-08
2.12063e-08
1.93601e-09
9.94719e-10
4.11287e-11
5.01993e-10
4.42825e-10
-1.09645e-10
-4.72965e-11
-5.16204e-10
-3.06786e-09
-6.57336e-09
-3.78995e-09
3.48693e-10
-1.70206e-09
-1.82999e-09
-1.15462e-09
-4.53843e-10
-5.06763e-09
-5.82273e-10
-4.27866e-10
1.14027e-11
-1.54648e-10
-1.02629e-09
4.77146e-10
8.45614e-10
-8.74004e-09
-1.17977e-08
-1.45331e-08
-1.37898e-08
1.31642e-08
2.06618e-09
-5.3213e-10
8.53216e-09
1.10385e-08
3.59431e-09
-7.01644e-09
-4.66566e-08
-6.5144e-08
4.05924e-08
7.69109e-08
9.0321e-09
1.74403e-10
6.75209e-10
6.11933e-11
1.64626e-10
2.09958e-10
3.93204e-10
1.0663e-09
1.36384e-09
-1.01876e-09
-3.87765e-09
-4.96607e-09
-2.12186e-09
-2.51803e-09
-3.76216e-09
-1.72293e-09
1.18695e-09
-2.6963e-09
-1.18344e-09
-4.66711e-10
-6.62157e-11
1.06702e-10
6.44181e-10
2.05927e-09
1.19194e-09
-6.22202e-09
-1.40824e-08
-2.25324e-08
-2.47078e-09
1.72987e-08
1.18321e-08
1.71101e-08
8.2005e-09
4.81502e-09
4.75987e-09
7.59308e-10
-2.57312e-08
-6.86827e-08
4.62335e-08
4.64448e-08
-7.87229e-09
-2.8626e-09
1.11576e-10
1.2031e-10
-1.53379e-10
3.98162e-11
1.23702e-09
3.70288e-09
6.51413e-09
2.90132e-09
-2.03405e-09
-2.85575e-09
-3.57833e-09
-4.79201e-09
-5.58381e-09
-8.81131e-10
1.82247e-09
-4.90098e-10
-2.62838e-09
-2.17454e-09
-2.45174e-10
1.59335e-10
5.05187e-10
1.68095e-09
6.11344e-09
-4.65545e-09
-3.46866e-09
-1.82346e-08
-1.23727e-09
6.94462e-09
1.00612e-08
1.79906e-08
6.74777e-09
1.66028e-09
2.36742e-10
2.02631e-09
-1.03644e-08
-3.70852e-08
2.59959e-08
4.58473e-09
-2.0933e-08
-5.95768e-09
-5.87103e-10
1.49386e-10
-2.01146e-10
7.46867e-10
2.69795e-09
6.12238e-09
1.12028e-08
8.36219e-09
9.35807e-11
-1.76797e-09
-2.44755e-09
-6.11913e-09
-9.43095e-09
-3.49268e-09
3.04216e-09
9.6762e-10
-3.47954e-09
-3.84937e-09
-9.3294e-10
4.65909e-10
8.86284e-10
-3.04586e-10
4.11991e-09
4.51291e-09
5.95614e-11
-8.89911e-12
-1.34332e-08
-5.18797e-09
1.9124e-09
7.03826e-09
4.18614e-09
2.02387e-09
5.33215e-10
7.16545e-10
-2.09122e-09
-1.04061e-08
1.95333e-09
-2.07822e-08
-2.63084e-08
-6.67219e-09
-9.96581e-10
1.94903e-10
-3.00418e-11
2.44147e-09
5.14126e-09
7.71261e-09
1.3655e-08
1.12915e-08
1.97752e-09
-1.43403e-09
-1.4332e-09
-4.08101e-09
-1.09045e-08
-7.47719e-09
2.0719e-09
1.17782e-09
-3.14654e-10
-7.29887e-10
-6.87926e-10
2.05858e-10
5.11674e-10
5.39155e-10
8.91946e-10
9.09587e-09
5.38717e-09
8.72526e-09
-1.78857e-08
-2.866e-08
-7.86322e-09
1.87562e-09
-1.47638e-10
3.77281e-09
7.01972e-09
1.63731e-08
1.20719e-08
7.03869e-10
-6.68198e-09
-2.91096e-08
-2.35547e-08
-4.98015e-09
-6.8653e-10
3.53341e-10
-6.5112e-11
3.83723e-09
1.01762e-08
1.13605e-08
1.71782e-08
1.51424e-08
3.31993e-09
-1.19891e-09
-1.25947e-09
-1.97885e-09
-7.67652e-09
-9.02227e-09
-4.78593e-10
-2.97981e-11
2.9061e-09
3.5731e-09
7.33679e-10
1.39568e-10
-2.08445e-10
5.21445e-10
1.34849e-10
8.35317e-09
7.21235e-09
1.00262e-08
-9.69349e-09
-5.08367e-08
-1.27212e-08
1.54825e-09
-7.9346e-09
1.5114e-09
1.40595e-08
4.51807e-08
3.98615e-08
5.66455e-09
-4.75828e-09
-2.33297e-08
-1.44385e-08
-1.95764e-09
2.86546e-10
3.5379e-10
-5.15871e-10
2.2322e-09
1.42948e-08
1.85737e-08
2.23705e-08
2.44214e-08
7.62549e-09
-7.35786e-10
-1.03079e-09
-1.05175e-09
-4.33309e-09
-7.18047e-09
-2.39357e-09
-4.90083e-10
1.46208e-09
2.7783e-09
4.96754e-10
-9.2779e-11
-1.57616e-10
3.14675e-10
-4.69654e-10
5.41888e-09
4.88121e-09
-5.83076e-10
-2.12363e-10
-4.4827e-08
-8.39243e-09
6.70016e-11
-5.83846e-09
-1.22978e-09
8.01166e-09
5.16224e-08
6.76277e-08
1.49526e-08
-1.37211e-09
-1.1374e-08
-6.7598e-09
-3.41848e-10
6.00227e-10
5.40744e-10
-3.18087e-10
-1.8241e-09
8.61545e-09
2.16984e-08
2.07912e-08
3.51331e-08
1.98226e-08
9.007e-10
-8.66522e-10
-2.68164e-10
-1.39256e-09
-1.67536e-09
-3.06881e-09
-2.81092e-10
-2.94962e-11
4.66183e-10
7.5885e-12
-5.39261e-11
3.42034e-10
5.04157e-10
1.74633e-10
9.6461e-10
5.51578e-09
-8.52859e-09
1.35036e-09
-2.00269e-08
-3.74404e-09
9.36714e-10
7.35892e-09
-9.20435e-11
1.23998e-09
2.97944e-09
4.98828e-08
3.2367e-08
3.82541e-09
-4.2292e-09
-5.93478e-09
-1.4723e-09
4.29552e-10
5.09567e-10
5.15145e-10
-3.78249e-09
-3.1528e-09
1.68654e-08
1.73718e-08
3.01582e-08
3.65583e-08
6.70762e-09
-8.12229e-10
-1.47849e-10
1.30629e-09
3.96934e-09
8.82405e-10
3.86295e-10
3.1941e-10
4.65261e-11
-6.33303e-11
1.64159e-10
-2.16998e-10
-5.1593e-10
1.64285e-10
-5.40123e-10
4.57174e-09
-3.90918e-09
-7.47089e-10
-2.68714e-09
-1.37892e-09
3.16819e-09
8.36653e-09
1.07137e-09
1.99113e-09
-1.18113e-08
-3.50792e-09
2.09037e-08
5.23025e-09
-1.02266e-09
-2.64884e-09
1.65105e-09
1.04547e-09
-3.74376e-10
-3.85591e-11
-3.44106e-09
-1.26749e-08
1.44927e-09
1.88613e-08
1.35887e-08
3.42365e-08
1.19626e-08
-2.16816e-09
-1.20597e-10
1.61033e-09
5.13886e-09
4.94861e-09
1.27498e-09
7.74855e-11
-1.66461e-10
-8.19444e-10
-1.2588e-09
-6.75395e-10
-4.20419e-10
-3.85204e-10
-3.82598e-10
1.35783e-09
1.50313e-09
-2.27604e-09
-3.77334e-10
-8.77868e-10
5.73653e-10
2.32639e-10
-7.66203e-10
3.79295e-10
-6.13314e-09
-1.42083e-08
-1.24719e-09
2.91763e-10
1.20648e-09
3.56294e-09
3.6508e-09
1.17135e-09
-1.16757e-09
-1.07444e-09
4.09273e-10
-6.95456e-09
-1.13672e-08
1.14954e-08
3.22533e-09
1.04137e-08
8.31833e-09
-8.44803e-09
-1.61111e-09
1.34214e-09
1.8516e-09
3.07249e-09
1.0934e-09
-1.80091e-11
-2.40707e-10
-7.37793e-10
-2.35781e-09
-1.3484e-09
1.99057e-10
-5.56974e-11
-1.53897e-10
6.71002e-10
2.62745e-09
-3.96176e-10
-2.3834e-09
-5.3618e-09
-4.52748e-09
-3.90958e-09
-4.77805e-10
1.15984e-10
-2.35675e-09
-1.06708e-08
-6.72128e-09
-1.76187e-09
1.04114e-09
4.43301e-09
3.54121e-09
1.264e-09
-4.6627e-10
-2.48739e-10
1.00361e-09
-2.13505e-10
-7.12084e-09
-9.37747e-10
1.57785e-09
-1.62459e-08
-5.15442e-09
-1.09776e-08
-6.60077e-09
5.3611e-10
7.32767e-10
9.74621e-10
9.1936e-10
3.70271e-10
3.62657e-11
-4.03712e-10
-2.02919e-09
-2.57538e-10
1.13144e-09
-2.51061e-10
5.80915e-10
9.20406e-10
6.57785e-10
-2.86315e-10
-3.02626e-09
-5.65119e-09
-2.71275e-09
6.23923e-10
1.78101e-09
5.18332e-10
-3.06866e-10
-4.9323e-09
-2.46784e-09
6.28809e-10
6.07138e-10
1.62206e-09
-1.32248e-10
-2.71982e-09
-2.52689e-09
4.41235e-10
6.15054e-10
7.75052e-09
1.7626e-08
7.08402e-09
5.91315e-09
-1.64309e-08
-1.88058e-08
-8.78411e-09
-6.13474e-09
-1.00195e-09
1.91185e-09
2.29702e-09
2.89533e-09
2.03589e-09
1.19325e-09
3.26143e-10
2.175e-09
1.56571e-09
-2.81465e-10
3.92403e-10
-9.81872e-10
2.37687e-09
1.66442e-09
-4.37233e-10
-9.81206e-10
-1.03772e-09
-1.16373e-10
1.35994e-09
1.66715e-09
1.38862e-09
1.08519e-09
-6.28533e-10
-7.87446e-10
9.20192e-11
9.94569e-11
-6.11259e-10
-2.06484e-09
-3.47248e-09
-2.84529e-09
1.36444e-09
6.73084e-09
1.71097e-08
3.52385e-08
2.65944e-08
1.24546e-08
4.02423e-11
-1.19456e-08
-2.90129e-09
3.64739e-10
8.05886e-10
3.77234e-09
1.00518e-09
-6.78454e-10
1.51755e-10
1.03311e-10
6.2221e-10
2.24224e-09
-4.21727e-10
-2.57553e-09
5.33018e-10
-1.21157e-09
-1.71115e-09
4.59947e-10
-1.00213e-09
-1.84556e-09
-6.74547e-10
-1.80817e-10
-3.00906e-10
-3.23346e-10
6.79927e-12
4.31084e-10
4.10828e-10
1.38975e-10
6.21839e-11
-4.85488e-11
-1.51182e-10
2.58677e-10
3.51168e-10
-2.81829e-10
2.10819e-10
5.31445e-09
1.27427e-08
1.12138e-08
-3.13991e-10
-2.01691e-09
3.12154e-09
-2.2203e-09
2.51631e-09
6.84091e-09
5.66672e-09
4.445e-09
6.43932e-10
-7.79241e-10
1.895e-12
-1.8346e-10
-7.11011e-11
7.18916e-10
-3.09307e-10
-2.5222e-09
-1.07064e-09
2.86995e-10
-4.30029e-10
5.45986e-10
1.03464e-09
-8.61342e-10
-3.97045e-10
-1.14584e-09
-3.77575e-09
-2.00734e-09
-4.05757e-10
3.50781e-10
1.3939e-09
1.35984e-09
3.29675e-10
-5.35643e-10
-3.54428e-10
1.72229e-10
-5.52188e-10
-2.15159e-09
-2.28705e-09
6.46201e-10
3.58592e-09
2.63878e-09
-1.93351e-09
-5.30342e-09
-2.20339e-09
-3.75164e-11
-6.07132e-11
5.33095e-09
7.54306e-09
2.36474e-10
-1.9277e-10
-7.21329e-11
3.3895e-11
-1.91637e-10
-7.22638e-10
-3.04718e-11
8.72707e-11
-9.74676e-10
-1.33519e-10
4.22309e-10
-7.83282e-10
2.55403e-10
2.55028e-09
1.53133e-09
-3.16826e-10
-4.07515e-09
-6.1393e-09
-2.19581e-09
1.49254e-10
4.95054e-10
1.60814e-09
2.85302e-09
2.29285e-09
-7.80011e-10
-1.67129e-09
3.16042e-10
9.06996e-10
3.47859e-10
-2.36982e-09
-2.34593e-09
8.48948e-11
1.83535e-10
-4.15183e-10
-1.62499e-09
-6.13435e-10
7.29683e-11
5.27931e-10
1.36981e-09
1.18143e-09
-3.97829e-11
1.08425e-10
9.09149e-11
-2.47536e-10
-3.23803e-10
-2.18606e-10
7.29833e-10
1.38809e-09
-5.58417e-10
2.54879e-10
1.79464e-09
-1.66496e-09
-3.48961e-09
-2.45475e-10
8.0896e-10
4.43735e-10
-5.19732e-10
-1.76775e-09
-1.27736e-09
-2.13821e-10
7.00309e-10
1.76721e-09
2.21531e-09
1.02737e-09
-3.27566e-10
-9.55714e-11
5.81112e-10
1.11128e-09
1.36361e-09
-3.4099e-12
-6.5256e-10
-4.21786e-11
-2.85359e-09
-8.49088e-10
2.31551e-09
5.23742e-10
1.86328e-12
1.77688e-10
1.28971e-11
-1.1028e-10
-2.53977e-10
1.27735e-09
1.77248e-09
6.60228e-10
-4.36646e-10
-1.67596e-09
-6.45898e-10
2.54377e-09
1.83652e-09
-1.28413e-09
1.18318e-09
1.77663e-09
-4.83249e-10
-1.72059e-09
-1.17642e-09
1.33199e-09
1.22189e-09
-6.00083e-10
-1.17763e-09
-3.19916e-10
8.40109e-10
6.61654e-10
-8.95667e-10
-1.69755e-09
-1.69089e-09
-1.11663e-09
1.5885e-10
1.23767e-09
2.05043e-09
3.37813e-09
3.06018e-09
1.28086e-09
-1.46379e-09
-6.30766e-09
-4.97216e-09
-2.1493e-09
-6.43906e-10
5.17747e-10
5.33381e-10
4.81809e-12
-5.81671e-11
-7.84592e-11
-6.31491e-11
-9.80237e-12
3.21332e-11
7.44748e-11
3.60979e-11
3.8188e-11
5.58247e-11
-5.14602e-11
-1.6968e-10
-3.26578e-10
-2.99432e-10
-7.93058e-11
2.4405e-10
6.05523e-10
7.65194e-10
1.70815e-09
2.38911e-09
1.37578e-09
8.081e-10
-1.53233e-09
3.47718e-10
2.51694e-09
2.04962e-09
8.54879e-10
1.89239e-10
-6.423e-10
-1.38557e-09
-7.19077e-10
5.47807e-10
7.33097e-10
9.5448e-12
7.22304e-10
2.13017e-09
1.18039e-09
1.52898e-11
6.7361e-11
-1.70821e-10
-1.4439e-10
-7.29413e-10
-1.82757e-10
-9.27436e-11
4.50208e-12
4.06786e-10
1.45469e-09
7.31471e-10
-1.74213e-10
1.18934e-10
-1.14409e-09
-1.64962e-09
-1.15637e-09
-1.58735e-10
1.04001e-09
2.98923e-09
6.70835e-09
8.35383e-09
6.43706e-09
1.55276e-08
1.16582e-08
-2.96386e-09
-1.10389e-08
3.26248e-09
1.45683e-08
5.226e-09
-5.06869e-09
-8.8343e-09
-8.2735e-09
-5.69897e-09
-2.10018e-09
1.98961e-09
5.38704e-09
4.50589e-09
1.38795e-09
2.1595e-09
1.80594e-09
1.89552e-10
-3.66821e-10
-3.08465e-09
-2.48871e-09
-4.84199e-10
-3.13667e-10
-1.72213e-10
5.02995e-11
3.39508e-10
1.46375e-09
1.66714e-09
-9.72102e-11
-6.18525e-11
-3.11485e-09
-3.72294e-09
-2.73981e-09
-1.35957e-09
1.29949e-12
-9.92228e-12
1.48691e-09
6.25381e-09
4.35731e-09
6.35036e-09
9.21997e-09
1.24741e-08
-1.12295e-09
-1.56452e-08
2.81764e-09
-1.09967e-08
-1.49144e-08
-9.8291e-09
-4.06162e-09
-4.46869e-10
2.72083e-10
2.84754e-10
1.02449e-09
1.92629e-09
1.45642e-09
1.63021e-09
1.26812e-09
3.63922e-10
-2.55017e-10
-2.05507e-09
-2.62011e-09
-7.59783e-10
-1.38149e-11
-2.61025e-10
5.96277e-11
5.21183e-10
9.9674e-10
2.11562e-09
4.73102e-10
9.1886e-10
-3.72991e-09
-7.79864e-09
-3.88084e-09
-1.56454e-09
3.56757e-10
-2.19767e-09
-4.70743e-09
1.80596e-09
5.05185e-09
9.094e-10
-1.59066e-09
1.49086e-09
2.69469e-08
-4.51042e-08
-1.49472e-08
-2.8881e-08
-2.0931e-08
-6.93165e-09
-2.06068e-10
1.07997e-09
-3.53481e-10
-1.14937e-09
-6.33767e-10
4.71528e-10
1.39828e-09
3.58752e-09
4.35912e-09
1.59698e-09
2.08206e-10
-1.45111e-09
-3.10846e-09
-3.22426e-09
-5.16817e-10
-6.66048e-10
1.19567e-11
7.39583e-10
9.60421e-10
1.72801e-09
1.79304e-09
7.89834e-10
1.21926e-09
-1.39614e-08
-1.10939e-08
-3.32641e-09
9.95485e-10
-3.35758e-09
-9.09766e-09
-7.46027e-10
6.00808e-09
3.55494e-10
-2.51216e-09
-3.31057e-08
3.4629e-08
-7.0321e-08
-3.31348e-08
-4.44176e-08
-3.02279e-08
-8.98151e-09
6.22043e-11
6.19767e-10
-9.5161e-10
-9.80709e-10
-2.25883e-11
3.75787e-10
-1.17106e-10
1.56821e-09
7.81232e-09
5.9932e-09
2.01654e-09
-1.01653e-09
-2.32102e-09
-4.22505e-09
2.93778e-10
-2.78862e-09
-1.01413e-10
7.81779e-10
1.49448e-09
6.05949e-10
2.28798e-09
-1.10301e-09
4.33165e-09
-7.19576e-09
-2.19091e-08
-9.3789e-09
2.0832e-09
-1.34746e-09
-5.35234e-09
2.94953e-09
5.60898e-09
9.63912e-10
1.87117e-09
-4.01935e-08
-3.77803e-09
-8.42967e-08
-5.46987e-08
-3.70183e-08
-1.83533e-08
-6.86021e-09
-4.4108e-10
1.36088e-10
-1.42683e-09
-8.78136e-10
4.33276e-10
3.81621e-10
-1.21668e-09
-3.55784e-09
1.89094e-09
8.6018e-09
5.06209e-09
8.70116e-10
-8.13533e-10
-3.5376e-09
-6.05243e-10
-2.67924e-09
-1.06454e-09
5.10396e-10
2.40097e-09
3.8241e-10
1.04356e-09
-6.92786e-10
-4.09674e-09
4.77841e-09
-1.76857e-08
-1.52653e-08
1.89746e-09
1.98654e-09
1.07342e-08
1.5935e-08
4.94974e-09
3.99915e-09
1.55609e-09
-1.66168e-08
-4.29339e-08
-8.519e-08
-7.5793e-08
8.81444e-10
2.27526e-08
4.81658e-09
-5.19976e-11
-5.45266e-11
-1.21678e-09
-6.6166e-10
2.51705e-10
6.2221e-10
1.24446e-09
-3.27552e-09
-6.90986e-09
2.59907e-09
6.05796e-09
4.12827e-09
-5.91448e-11
1.14682e-09
-8.03059e-09
-7.29217e-10
-1.63787e-09
-2.75684e-10
2.60327e-09
1.77194e-09
-3.53923e-11
3.96102e-09
-4.7919e-09
-3.24768e-09
1.13453e-09
-6.17282e-09
1.31941e-10
2.55652e-09
2.58641e-08
2.30527e-08
4.1239e-09
6.88933e-09
2.70227e-09
3.0031e-09
-4.07041e-08
-6.98047e-08
-7.46444e-08
4.13286e-08
5.3215e-08
8.43662e-09
-1.6895e-10
-9.69918e-11
-7.63293e-10
-1.21472e-10
9.99787e-10
1.6673e-09
6.50112e-09
5.21172e-09
-6.86691e-09
-7.44491e-09
6.79124e-10
4.22516e-09
3.86144e-09
8.65831e-09
-5.50994e-09
-4.70509e-09
-8.61587e-10
-2.46843e-10
1.9597e-09
4.01685e-09
1.91901e-10
2.36541e-09
1.04631e-08
-5.06194e-09
-1.55254e-09
8.20276e-09
-7.62665e-09
-2.54297e-09
2.23454e-08
1.43862e-08
4.54983e-09
6.72793e-09
2.42089e-09
1.09323e-08
-9.11315e-09
-3.72886e-08
-5.09364e-08
5.71986e-08
4.67208e-08
2.49795e-09
-2.36661e-10
-2.96281e-10
-8.8165e-10
7.47036e-10
4.37419e-09
7.26122e-09
1.35028e-08
1.66131e-08
1.98331e-09
-9.47544e-09
-7.2755e-09
-1.3248e-09
8.21897e-09
1.7888e-08
7.28402e-09
-5.98129e-09
-1.48179e-09
-3.602e-11
2.16753e-09
3.20611e-09
1.91555e-09
-6.45581e-09
8.02587e-09
1.90024e-08
-8.97149e-09
-1.37303e-09
-1.73783e-08
-1.78894e-08
2.46015e-09
4.54146e-09
4.43193e-09
3.33439e-09
6.87916e-10
6.54937e-09
1.69142e-08
-5.60386e-09
-2.11811e-08
3.98707e-08
1.55235e-08
-7.24279e-10
5.01411e-10
-6.29497e-10
-1.06705e-09
1.64289e-09
7.21326e-09
1.1465e-08
1.53019e-08
1.94001e-08
1.13409e-08
-3.83868e-09
-8.70803e-09
-8.00747e-09
6.36276e-09
2.29512e-08
1.73674e-08
-3.01339e-10
-3.73295e-09
-2.53976e-09
1.22654e-09
2.03004e-09
2.09672e-09
-3.30627e-09
-1.28445e-08
2.35678e-08
1.40037e-08
-2.74895e-08
-2.76104e-08
-3.73169e-08
-2.68641e-08
-4.16838e-09
1.52024e-09
-3.31214e-10
-3.58027e-10
-3.83176e-09
1.30075e-08
4.81056e-09
-3.47426e-09
6.30026e-09
-3.55472e-09
-1.70928e-10
3.30082e-10
-2.79844e-10
-3.52136e-10
2.22178e-09
8.64936e-09
1.29757e-08
1.47438e-08
1.39621e-08
1.0181e-08
1.67644e-09
-4.53689e-09
-7.96398e-09
-2.30617e-09
1.67688e-08
1.89388e-08
4.32242e-09
-5.16666e-09
-3.9107e-09
-6.62989e-10
1.69849e-09
3.52131e-09
4.21069e-09
-1.2561e-08
1.53531e-10
3.24397e-08
-2.17371e-08
-3.64034e-08
-4.17444e-08
-4.47486e-08
-1.06257e-08
-3.37742e-09
-2.42373e-09
-1.28989e-10
-7.20505e-09
-5.62842e-09
-6.18734e-10
-9.06163e-10
-5.2963e-09
-2.40158e-09
-1.18798e-09
6.98134e-11
-8.83687e-11
-3.80769e-10
2.2072e-09
1.04991e-08
1.56258e-08
1.64969e-08
1.77697e-08
8.53217e-09
2.04454e-09
-1.19369e-09
-3.86513e-09
-7.89164e-09
3.57843e-09
1.23986e-08
3.13773e-09
-4.47625e-09
-1.60732e-09
-4.82805e-10
2.78736e-10
1.46024e-09
4.40204e-09
-3.62275e-09
-1.7533e-08
2.45887e-08
-4.20616e-09
-2.86893e-08
-2.20275e-08
-2.6228e-08
-8.13651e-09
-7.72316e-09
-2.6742e-09
1.72847e-09
6.75061e-09
-2.60761e-09
-2.29113e-09
-6.07796e-10
4.02614e-10
-2.53892e-09
-1.28088e-09
-3.59816e-10
-3.96469e-10
-3.52299e-10
3.03927e-10
8.51981e-09
1.6836e-08
1.4001e-08
2.51889e-08
1.60209e-08
1.71033e-09
-2.50549e-10
-1.72465e-09
-6.87544e-09
-4.33545e-09
5.04452e-09
1.04799e-09
-7.03812e-10
1.09525e-10
-2.19749e-10
-1.37421e-10
5.12373e-11
8.41399e-10
-3.44743e-10
-2.21312e-08
-1.0607e-09
6.53368e-09
-1.9807e-08
-2.02569e-09
4.12768e-09
-3.76901e-09
-7.03522e-09
-8.09101e-10
3.61521e-09
2.95703e-08
2.66979e-08
5.65597e-09
-1.11123e-10
-1.10581e-09
-4.01161e-09
-2.77559e-09
-1.16424e-09
7.70355e-10
6.94901e-10
-1.39162e-09
2.20593e-10
6.94333e-09
-2.53884e-10
1.70993e-08
2.97723e-08
4.39e-09
-6.5061e-10
-8.62824e-10
-4.33912e-09
-5.10696e-09
6.42922e-10
1.10723e-09
-1.29778e-10
-5.42306e-13
-3.51154e-10
-6.03998e-10
-2.71891e-10
7.61784e-11
-1.02547e-10
-1.37457e-08
-2.05428e-08
7.15699e-09
-1.53547e-08
3.44287e-09
1.24849e-08
-1.5866e-09
1.8089e-09
2.104e-09
2.70736e-09
2.57112e-08
4.81555e-08
1.8066e-08
4.44751e-10
-4.38149e-09
-7.2294e-09
-5.58871e-09
-2.13751e-09
7.63436e-10
1.79454e-09
-2.66091e-10
-2.78075e-09
2.22919e-09
-7.26689e-09
-1.32535e-08
2.64604e-08
1.15264e-08
-2.24032e-09
-3.08558e-13
-1.72705e-09
-2.29899e-09
-7.31365e-10
1.58744e-09
3.48919e-10
-1.89452e-10
-1.0281e-09
-5.40707e-10
1.74488e-10
7.88391e-11
1.52261e-10
-3.40447e-09
-1.50528e-08
1.91575e-09
-1.14486e-08
-5.40699e-09
5.8113e-10
-1.23232e-09
6.32431e-09
3.47619e-09
2.44092e-09
1.99534e-09
2.50956e-08
1.84513e-08
1.0475e-09
-8.29071e-10
-6.31597e-09
-4.33283e-09
5.71271e-11
-2.59109e-10
1.46361e-09
-2.67715e-10
-1.08858e-08
-3.74512e-09
8.8048e-10
-2.63985e-08
-6.36862e-09
1.09174e-08
-3.26617e-09
-1.14185e-09
7.21099e-10
4.93035e-10
3.05232e-10
1.04323e-09
1.59724e-10
-3.54327e-10
-1.06296e-09
-6.50722e-10
7.41915e-10
8.02259e-10
-8.68749e-11
2.28168e-10
-4.49611e-09
2.6323e-10
-6.66692e-09
-1.65395e-08
-1.01521e-08
-3.91549e-09
1.51592e-09
1.94479e-09
1.37856e-09
-2.09056e-09
6.69471e-09
6.60823e-09
7.07406e-10
2.9597e-09
-1.70045e-10
3.56913e-10
2.05175e-10
-3.1866e-10
-5.25148e-10
6.15465e-10
-7.80985e-09
-1.32485e-08
4.86524e-09
-1.47888e-08
-3.1578e-08
-6.86314e-09
-5.56775e-09
-3.73219e-09
1.01385e-09
3.41498e-10
7.88512e-11
-6.50339e-10
-6.82049e-10
-2.15163e-10
-2.48904e-10
-7.98253e-10
-2.37657e-10
1.95406e-09
2.91026e-10
-5.97171e-10
5.04904e-10
-3.99494e-10
-4.86136e-10
-1.20717e-08
-9.42929e-09
-4.91758e-09
-1.41066e-09
8.52137e-10
5.08285e-10
-1.39951e-09
6.14043e-10
6.96114e-11
-1.38878e-09
2.51546e-09
4.86084e-09
3.2685e-09
1.75079e-09
1.12471e-09
1.16942e-10
4.32934e-11
-3.51223e-09
-1.63369e-08
-4.82733e-10
1.45742e-09
-2.89411e-08
-1.91361e-08
-4.97952e-09
-4.45243e-09
-7.19384e-10
1.41215e-09
1.57065e-09
-2.30456e-10
-7.13605e-10
2.00283e-10
-1.18092e-10
4.12959e-10
4.50239e-10
1.32349e-09
2.052e-09
-1.30442e-09
4.43656e-10
-1.42426e-10
6.04142e-10
-2.573e-09
-1.3998e-09
-8.35511e-10
-4.01901e-10
-4.51883e-10
-6.69039e-10
-6.43406e-11
-1.92184e-09
-2.14052e-09
-1.17033e-09
3.46049e-11
3.37328e-09
3.14902e-09
6.37566e-10
-2.97908e-10
-6.64513e-11
-1.14529e-09
1.08157e-09
-5.23415e-10
-7.94135e-09
1.01488e-08
-8.60209e-09
-1.54674e-08
-5.30817e-11
7.59082e-10
1.5908e-10
3.0527e-09
5.16028e-10
-1.93627e-09
-6.92325e-10
2.34387e-10
6.25604e-11
2.85376e-09
4.07651e-09
1.56212e-09
2.80099e-09
-4.2522e-11
-3.84562e-10
1.25212e-09
-1.32223e-09
9.70663e-10
1.97258e-09
-7.58617e-11
5.47553e-10
9.31772e-10
-2.83492e-10
-4.56677e-10
-4.43663e-10
-2.87963e-10
1.0064e-10
1.09311e-10
1.14218e-09
1.72571e-10
-1.58836e-09
-1.15105e-09
6.89704e-10
1.16578e-09
1.31669e-08
2.50233e-08
1.02296e-08
8.98836e-09
7.38036e-09
-4.23907e-09
1.15765e-09
3.03736e-09
2.81483e-09
3.30036e-09
-6.50803e-10
-2.36011e-09
-3.53972e-10
-2.16419e-10
1.74752e-10
2.05216e-09
1.57246e-09
-1.77244e-09
-6.70491e-10
5.74222e-10
-3.48107e-09
-1.98894e-09
-2.08709e-09
-5.6928e-10
6.91804e-10
-1.08523e-09
-8.57442e-10
9.00952e-11
6.49815e-11
-1.47511e-10
-1.57174e-11
-2.78175e-11
4.02263e-11
-3.98735e-11
8.42364e-12
8.69967e-11
-1.48411e-10
-2.36016e-10
1.0475e-09
2.90931e-09
3.29226e-09
1.82012e-09
-1.58873e-09
1.31023e-09
8.19514e-09
2.54925e-09
3.90384e-09
6.36578e-09
5.55775e-09
6.24233e-09
4.68217e-10
-5.09402e-10
-8.60297e-11
-6.26029e-10
-1.1562e-11
4.95646e-10
5.55608e-10
-1.32472e-09
-2.93579e-09
-1.84721e-10
-1.39693e-09
-3.14781e-09
-2.1718e-09
-5.44431e-10
3.92262e-11
-3.57816e-09
-3.51713e-09
-2.02369e-11
4.40899e-10
4.53875e-11
7.4545e-11
-3.41928e-11
-5.05017e-10
-1.5138e-09
-1.60657e-09
-1.97202e-10
-2.1109e-10
-2.30259e-09
-1.692e-09
9.56614e-10
-3.93554e-10
-5.20236e-09
-1.15358e-08
-1.28378e-08
-3.88444e-09
1.74301e-09
3.16594e-09
8.83295e-09
1.15413e-08
2.59704e-09
4.54244e-10
-7.54903e-11
-3.34243e-12
-5.44265e-11
-4.36336e-10
-4.35748e-10
1.53894e-10
2.53254e-10
-8.76279e-11
-1.45135e-10
-7.1003e-10
-2.40853e-09
6.12934e-10
1.51683e-09
-1.63069e-09
-5.00882e-09
-2.57496e-09
1.06621e-09
6.41494e-10
1.90881e-10
2.44283e-10
9.76164e-10
-2.79339e-10
-5.2157e-09
-5.65577e-09
-7.15264e-10
-6.43518e-11
-1.77781e-09
-1.46493e-09
-4.525e-10
-3.14688e-10
1.58529e-09
4.53342e-10
-4.51673e-09
-2.14846e-09
-2.1801e-10
1.01472e-09
3.66525e-09
4.29561e-09
1.35396e-10
2.10125e-11
4.49026e-11
-6.21252e-11
-2.89896e-10
-7.18578e-10
-1.09704e-10
1.17712e-09
1.23023e-10
3.95345e-10
8.25555e-10
-1.25438e-09
-3.82666e-09
-2.29626e-09
-2.40519e-10
5.29329e-11
-1.75421e-10
-8.64503e-10
-6.88919e-10
-3.60239e-10
-4.07876e-11
2.83084e-10
4.8457e-10
3.7745e-10
-1.81972e-10
-6.149e-11
1.86065e-10
-4.79276e-10
-1.58486e-10
3.15285e-10
1.50421e-10
-8.48617e-10
-1.28996e-09
2.24664e-09
1.48283e-09
-5.25683e-10
1.96892e-10
1.6745e-10
-2.73433e-10
-1.51632e-11
-8.80974e-10
1.19344e-10
1.10618e-09
6.58375e-10
-5.70062e-10
-1.53489e-09
-1.55494e-09
6.64807e-10
1.11528e-09
4.47791e-11
1.53718e-09
7.36307e-10
-5.63775e-10
-4.24926e-10
-2.2818e-10
8.31881e-10
1.26334e-09
9.49151e-11
-6.83547e-10
1.48323e-10
1.69095e-10
-9.52466e-10
-7.73521e-10
-7.9986e-10
-1.25552e-09
-5.71194e-10
4.49168e-11
1.72331e-10
4.85629e-10
1.56005e-09
2.74675e-09
1.1756e-09
-3.68159e-09
-5.6276e-09
-4.23657e-09
-3.54097e-09
-1.18361e-09
9.22965e-10
6.13719e-10
-4.62854e-10
-1.72237e-10
-2.19358e-10
-1.90022e-10
-6.95645e-11
-8.45349e-11
-4.42805e-11
3.12532e-11
2.12278e-11
-1.66232e-11
-1.45345e-11
3.63545e-11
-3.13762e-11
-8.13913e-11
3.6268e-11
-1.69225e-11
6.45055e-11
-2.01103e-10
-1.43555e-09
-1.42628e-09
1.53108e-09
3.35243e-09
2.40075e-09
-1.55016e-10
1.07086e-09
3.8241e-09
2.76794e-09
-4.61957e-10
-1.48671e-09
-7.6671e-10
-1.63333e-10
1.49071e-10
8.21534e-10
1.45279e-09
1.18891e-09
7.6117e-10
5.22518e-10
4.68746e-10
-2.73455e-10
-1.28314e-10
-1.78872e-11
-5.629e-09
-4.74028e-09
-1.79258e-09
-9.47302e-11
2.15705e-10
-1.08452e-11
-3.22669e-10
-3.04079e-10
-5.44707e-11
-1.58119e-10
2.97792e-10
2.02432e-09
3.40053e-09
4.69438e-09
7.67416e-09
1.18907e-08
1.11882e-08
1.65224e-09
-5.03238e-09
1.07905e-08
1.88383e-08
1.55803e-09
-2.19235e-10
2.04499e-10
4.12642e-10
-4.32633e-09
-8.10442e-09
-5.87052e-09
-2.37007e-09
-6.26323e-10
1.34797e-10
1.44058e-09
2.89229e-09
3.15482e-09
1.22797e-09
1.81577e-10
-2.05853e-11
-6.96793e-10
-6.51968e-10
-2.27942e-09
-8.16406e-09
-6.27282e-09
-1.94221e-09
2.33884e-10
2.73056e-10
-4.83766e-10
-7.63614e-10
-9.13639e-11
3.09397e-10
-8.2933e-11
-1.06888e-09
1.82694e-10
1.70987e-09
2.16764e-09
3.90588e-09
7.1443e-09
8.38768e-09
3.44573e-09
-2.19955e-09
5.18885e-09
2.02724e-08
1.10639e-08
2.75674e-09
-8.70901e-09
-6.92269e-09
-5.25548e-09
-1.03305e-08
-5.15876e-09
-9.88639e-10
-1.17875e-09
-1.68351e-09
-7.43939e-10
4.58384e-10
1.07829e-09
7.53783e-10
3.49921e-10
-7.73219e-10
-1.04563e-09
-9.34777e-10
-2.25977e-09
-9.69618e-09
-8.51128e-09
-1.95588e-09
3.20056e-10
-5.86562e-11
-8.82468e-10
-7.30962e-10
2.58664e-10
5.559e-10
1.32381e-10
-1.01861e-09
-9.85506e-10
6.25308e-10
9.73471e-10
1.92189e-09
3.52865e-09
4.03285e-09
2.12848e-09
-2.64027e-09
-4.43389e-11
1.21491e-08
1.19276e-08
1.73828e-08
-2.36721e-08
-3.23143e-08
-3.99941e-09
-7.02867e-09
-2.53294e-09
2.53623e-10
-2.17196e-09
-3.44241e-09
-2.15577e-09
-2.5389e-10
1.17284e-09
1.83501e-09
7.89094e-10
-1.06699e-09
-2.16637e-09
-1.41687e-09
-4.05609e-10
-8.72187e-09
-1.59849e-08
-4.56495e-09
1.14752e-10
6.39979e-12
-1.21408e-09
-8.40574e-10
3.84022e-10
1.13637e-09
1.49008e-10
-2.14926e-10
-1.67922e-09
3.83607e-11
6.17927e-10
1.8937e-09
3.28541e-09
1.63389e-09
3.50216e-10
-4.09903e-09
-3.31512e-09
1.67183e-09
-4.01689e-12
2.21354e-08
-2.92625e-08
-7.04729e-08
-9.31366e-09
-5.3407e-09
-3.00314e-09
4.79032e-10
-1.87534e-09
-3.02258e-09
-1.56292e-09
-2.07662e-10
6.48826e-10
2.70025e-09
3.10839e-09
-2.36287e-10
-3.50963e-09
-1.94146e-09
1.60455e-09
-1.30764e-09
-2.05804e-08
-1.16804e-08
-1.21419e-09
7.55543e-10
-1.46512e-09
-1.44866e-09
5.22986e-10
1.72189e-09
8.49203e-10
-1.26427e-10
-1.11889e-09
-7.1848e-10
9.70384e-11
2.80544e-09
5.09637e-09
9.4511e-10
-1.01081e-09
-3.82307e-09
-3.84364e-09
-7.76967e-10
-1.12049e-08
3.84648e-09
-3.10435e-08
-1.00852e-07
-2.4231e-08
-7.5635e-09
-5.89006e-09
7.9519e-10
2.92897e-10
-6.4584e-10
-3.70202e-11
-1.71905e-10
-7.18494e-10
-1.46973e-10
2.97818e-09
1.93643e-09
-2.88318e-09
-2.5739e-09
1.19228e-09
2.42841e-09
-1.37416e-08
-2.0991e-08
-5.44591e-09
1.68531e-09
-8.70939e-10
-2.32512e-09
2.75562e-11
2.43288e-09
2.16427e-09
-6.8918e-10
-1.49003e-09
-1.66557e-09
-7.04704e-10
3.25356e-09
4.84672e-09
2.93922e-10
-1.20308e-09
-1.51949e-09
9.63344e-10
2.98061e-09
-1.17232e-08
-2.18955e-08
-3.53804e-08
-1.02286e-07
-2.36875e-08
-4.25189e-09
-5.20376e-09
5.65043e-10
1.94283e-09
1.4323e-09
5.28612e-10
-3.905e-10
1.54899e-09
1.15888e-09
-3.34346e-10
1.95086e-09
-5.96369e-10
-1.50541e-09
8.5207e-11
1.30343e-09
-6.87206e-09
-2.20385e-08
-1.14264e-08
1.44881e-09
8.36898e-10
-2.33395e-09
-1.80622e-09
1.51872e-09
2.84266e-09
1.58982e-09
-2.45485e-09
-4.81089e-09
-2.50883e-09
1.92713e-09
1.10675e-09
5.70346e-11
1.11941e-10
5.22727e-09
1.06623e-08
8.52911e-09
-3.19176e-09
-2.91575e-08
-3.52645e-08
-7.31657e-08
-6.53287e-09
3.09643e-09
-4.36813e-10
2.2228e-10
6.77827e-10
5.54131e-10
1.00006e-09
1.76205e-09
8.63417e-09
1.54453e-08
4.50108e-09
-9.68873e-10
6.36251e-11
1.64041e-09
2.51103e-09
1.07029e-09
-5.87948e-09
-1.8905e-08
-1.24682e-08
2.5191e-10
2.00033e-09
-9.60368e-10
-2.20102e-09
-2.23907e-09
2.01872e-09
4.42303e-09
2.44595e-09
-8.7204e-09
-7.64235e-09
-1.07129e-09
-1.10169e-09
-5.65871e-10
1.26296e-09
1.22894e-08
1.67466e-08
1.094e-08
1.166e-08
-1.3941e-08
-2.21453e-08
-3.56068e-08
6.09977e-09
6.12112e-09
1.02949e-09
-3.82115e-10
-8.55309e-10