/*--------------------------------*- C++ -*----------------------------------*\
| =========                 |                                                 |
| \\      /  F ield         | OpenFOAM: The Open Source CFD Toolbox           |
|  \\    /   O peration     | Version:  5.0                                   |
|   \\  /    A nd           | Web:      www.OpenFOAM.org                      |
|    \\/     M anipulation  |                                                 |
\*---------------------------------------------------------------------------*/
FoamFile
{
    version     2.0;
    format      ascii;
    class       volScalarField;
    location    "50.4676134421789371";
    object      VVU;
}
// * * * * * * * * * * * * * * * * * * * * * * * * * * * * * * * * * * * * * //

dimensions      [0 3 -3 0 0 0 0];

internalField   nonuniform List<scalar> 
60000
(
-2.00997e-14
9.98701e-14
1.54645e-13
2.67954e-14
4.62015e-16
2.37304e-17
-6.24354e-16
-7.78291e-16
-8.13824e-18
-1.17997e-15
-9.34045e-15
-2.1886e-14
-7.03562e-15
-7.51425e-15
-2.94055e-14
-4.71487e-14
-1.18811e-15
-2.58576e-14
-2.2168e-13
-4.14782e-13
-5.36629e-13
-1.06825e-13
-7.57213e-14
-4.75971e-14
-3.65572e-13
-1.61528e-12
-1.11023e-12
-1.08787e-13
-2.5795e-14
-7.80688e-14
-1.15327e-13
-3.15185e-13
-5.06769e-13
-2.92581e-13
-3.08549e-14
9.70689e-17
4.16075e-16
-3.20933e-14
-4.78088e-14
-4.98761e-14
-7.58537e-12
-8.62974e-13
8.38374e-13
2.64034e-13
1.3026e-12
3.10517e-14
-2.99198e-15
-4.47252e-14
-8.66243e-16
-7.12035e-13
-5.35267e-12
-5.75683e-12
-6.86519e-13
-6.60129e-14
-2.94105e-13
-7.08529e-13
-3.38592e-12
-7.35098e-12
-2.28679e-12
-2.11735e-12
-1.2183e-11
-1.27982e-11
-1.90651e-12
-2.41138e-11
-1.67012e-10
-3.15127e-10
-1.99272e-10
-2.6785e-11
-1.99182e-12
-4.54055e-12
-3.99827e-13
-6.35681e-14
-3.09957e-12
-1.05914e-11
-9.82644e-12
-3.43755e-13
9.75549e-14
-9.21058e-14
-1.40109e-12
-7.60126e-12
-3.10671e-11
-2.25155e-11
-1.67305e-12
1.16923e-13
3.54737e-12
1.26595e-12
-1.93172e-15
-1.88834e-13
-1.30638e-13
-5.19913e-13
-1.17517e-11
-2.6438e-11
-8.60619e-12
-4.4642e-15
-2.10513e-12
-1.38371e-11
-4.34575e-11
-5.66419e-11
-7.71918e-12
-2.33617e-11
-1.08858e-10
-1.20822e-10
-1.43183e-11
-1.18327e-10
-6.08027e-10
-9.53743e-10
-5.50495e-10
-7.24907e-11
-8.09043e-12
-2.32248e-11
-3.10794e-12
-4.17226e-13
-1.63782e-13
-4.90804e-12
-2.07642e-11
-7.08522e-12
-2.70854e-14
-6.72718e-13
-2.03402e-12
-5.20298e-12
-3.93024e-11
-3.6471e-11
-1.40342e-14
4.27978e-13
1.00314e-11
9.82897e-12
1.41871e-12
2.06559e-13
-5.11346e-15
-1.28141e-14
-1.039e-11
-4.08437e-11
-1.18919e-11
2.94926e-13
1.87044e-12
-1.89663e-11
-7.78687e-11
-6.42099e-11
-6.16717e-13
2.89564e-11
6.53611e-11
-1.29943e-10
-2.14244e-11
-2.35121e-10
-8.87083e-10
-1.01454e-09
-3.9163e-10
-1.03153e-11
-3.72806e-11
-6.42156e-12
1.51772e-11
1.69063e-13
2.38059e-13
-2.92077e-13
-8.09652e-12
-4.09384e-13
2.30645e-13
1.7866e-11
1.64017e-12
-1.37483e-15
-3.04714e-11
-6.64264e-11
1.17595e-11
1.47572e-13
2.2429e-11
2.44993e-11
7.51289e-12
6.94704e-14
1.88605e-16
-2.02141e-13
-6.01638e-12
-8.04282e-11
-3.02374e-11
9.02179e-12
9.64606e-12
-1.59372e-11
-1.45419e-10
-8.47601e-11
8.75451e-12
2.1127e-10
9.70516e-10
1.60193e-10
-4.95784e-11
-4.61187e-10
-1.50242e-09
-1.28182e-09
-3.91164e-10
-4.26289e-12
-6.45891e-11
3.40953e-11
9.9283e-11
1.44525e-11
2.68275e-13
4.10266e-14
9.70995e-12
2.47077e-11
7.60584e-12
3.52595e-11
6.47095e-11
-1.268e-12
-1.55605e-12
-1.24022e-10
-2.86396e-11
1.46435e-12
1.95515e-11
2.98688e-11
1.25686e-11
1.08403e-12
1.84803e-13
3.2276e-12
-2.32541e-13
-1.08303e-10
-1.68545e-10
1.6806e-11
1.91194e-12
-7.53553e-11
-4.31236e-10
-2.41848e-10
9.76738e-12
3.3435e-10
2.77025e-09
1.34157e-09
-1.16212e-10
-7.73501e-10
-2.5179e-09
-1.63058e-09
-4.81808e-10
-1.98931e-11
-9.4876e-11
-1.97329e-10
6.50175e-12
4.64631e-11
5.11496e-12
5.82373e-13
1.21422e-11
4.32828e-11
2.07804e-11
1.68564e-11
1.34421e-10
4.13477e-11
3.2918e-12
-4.28024e-11
-8.94572e-11
-3.31101e-12
2.83499e-12
1.44076e-11
8.00662e-12
3.82729e-12
3.49754e-12
1.05817e-11
2.61005e-14
-3.49382e-13
-2.50176e-10
-1.01505e-10
-1.17865e-12
-2.9349e-10
-1.15305e-09
-5.8309e-10
-4.92793e-12
4.14934e-10
4.79078e-09
4.13544e-09
-1.00221e-10
-8.31123e-10
-2.74203e-09
-1.57185e-09
-5.91535e-10
-4.54358e-11
-6.92144e-11
-2.91597e-10
-3.0801e-10
-9.84619e-11
1.38991e-11
2.76369e-11
3.87438e-11
5.7362e-11
2.7016e-11
2.35833e-12
8.96853e-11
1.22969e-10
5.65781e-11
5.35461e-13
-1.29608e-11
-4.31068e-12
-1.36514e-12
-2.36516e-12
1.61394e-13
3.68047e-13
4.18608e-12
1.07901e-11
7.46027e-14
2.19421e-10
1.6068e-10
-3.00791e-10
-3.56866e-11
-7.73268e-10
-2.33734e-09
-1.14075e-09
-2.76908e-11
4.3977e-10
6.1516e-09
7.79196e-09
2.99802e-10
-4.47772e-10
-1.98877e-09
-1.66659e-09
-8.64991e-10
-7.15692e-11
-5.29052e-11
-2.08301e-10
-2.66779e-10
-2.41355e-10
-1.69731e-10
-1.31055e-11
1.25963e-10
1.25007e-10
3.60291e-11
2.50453e-13
3.66659e-11
1.03937e-10
8.89117e-11
1.50491e-11
1.08985e-11
1.2938e-12
-2.84942e-12
-1.5687e-11
-1.62183e-13
-3.92175e-13
1.40894e-14
8.12844e-14
1.12234e-11
5.48294e-10
1.30265e-09
-3.959e-10
-6.09355e-11
-1.48578e-09
-3.67436e-09
-1.71709e-09
-6.13189e-11
2.8176e-10
6.345e-09
1.05298e-08
1.13462e-09
2.1318e-10
-4.64483e-10
-1.85746e-09
-1.09106e-09
-6.31352e-11
-5.73611e-11
-1.52729e-10
-1.33019e-10
-1.00039e-10
-1.68128e-10
-2.55979e-10
-2.25228e-12
2.41876e-10
1.05717e-10
2.09198e-12
1.593e-11
5.23422e-11
5.70458e-11
5.85562e-11
3.95497e-12
9.82009e-12
-1.976e-12
-4.37219e-11
-3.96472e-12
-1.37679e-12
-3.6508e-13
1.82903e-12
1.03462e-10
1.01293e-09
2.43408e-09
-9.0126e-11
-9.94157e-12
-2.34746e-09
-4.5582e-09
-1.92578e-09
-8.26731e-11
1.04593e-11
4.54133e-09
1.11491e-08
1.89614e-09
1.30032e-09
1.98702e-09
-1.81318e-09
-1.01137e-09
-2.42235e-11
-7.05533e-11
-1.10188e-10
-5.32611e-11
-1.44275e-11
-3.99033e-11
-1.97936e-10
-2.27761e-10
1.08487e-10
2.05083e-10
4.70077e-11
7.58006e-15
1.5135e-11
5.32517e-12
4.06234e-11
6.07079e-11
7.28414e-11
-2.27743e-11
-4.68362e-11
-4.7041e-12
-6.92156e-13
-4.0153e-15
-2.66511e-12
1.22984e-10
1.46514e-09
2.97334e-09
4.99748e-10
-2.1446e-11
-2.8862e-09
-4.79554e-09
-1.95109e-09
-9.00053e-11
-3.98404e-11
1.62062e-09
8.55223e-09
2.43882e-09
2.22652e-09
4.05123e-09
-1.11353e-09
-6.21882e-10
-1.56349e-12
-6.82195e-11
-6.17141e-11
-8.8727e-12
-2.33582e-12
-1.07883e-12
-9.53095e-11
-1.8963e-10
2.35499e-11
1.83561e-10
1.07745e-10
2.71101e-11
1.75672e-12
9.35063e-12
5.84152e-13
8.81463e-11
1.1598e-10
-4.72623e-12
2.69046e-11
5.77916e-12
2.12477e-14
-8.27336e-15
-2.4903e-12
1.91884e-11
1.28279e-09
3.10179e-09
7.4148e-10
-3.42067e-11
-2.42404e-09
-4.2621e-09
-1.91295e-09
-1.45149e-10
-5.69109e-12
3.63585e-10
4.30942e-09
2.59171e-09
1.50312e-09
3.64202e-09
-1.79344e-10
-2.21141e-10
-9.66462e-13
-4.50629e-11
-1.86115e-11
-6.47564e-12
-6.67165e-11
-1.63049e-11
-5.35135e-11
-1.77972e-10
2.90636e-11
1.57577e-10
8.77072e-11
3.80535e-11
2.2681e-11
1.5962e-11
5.7903e-12
1.42502e-11
6.30028e-11
1.45592e-10
1.91497e-10
4.93171e-11
3.29051e-13
2.59999e-14
-4.64545e-12
-4.01681e-11
8.2314e-10
2.85512e-09
9.92819e-10
1.98729e-11
-1.21313e-09
-2.92278e-09
-1.84815e-09
-4.04362e-10
-8.26373e-13
1.79432e-10
2.1077e-09
1.88193e-09
3.66683e-10
2.09922e-09
7.56331e-10
2.09327e-11
-1.35275e-12
-2.08358e-11
-5.92962e-13
-6.1306e-11
-2.26631e-10
-1.17817e-10
-2.65422e-11
-2.38064e-10
-4.11953e-11
1.10904e-10
3.89318e-11
1.3738e-11
3.03856e-11
4.37102e-11
-2.46782e-11
-1.15347e-12
9.12498e-12
2.42209e-10
3.179e-10
1.38941e-10
1.98274e-11
1.24943e-12
-1.75381e-13
-7.38171e-11
4.61534e-10
3.12579e-09
1.81144e-09
2.44515e-12
-2.11332e-10
-1.6576e-09
-2.01901e-09
-1.06843e-09
-5.47197e-11
2.29814e-11
1.23814e-09
9.03471e-10
2.4391e-11
1.1891e-09
9.0978e-10
6.95601e-11
-1.00461e-13
-5.16455e-12
-5.07092e-12
-1.07202e-10
-3.14855e-10
-2.34461e-10
-7.25898e-12
-3.32384e-10
-1.88529e-10
4.86769e-11
1.09804e-11
2.00544e-13
2.07051e-11
4.35389e-11
7.2798e-12
-6.65792e-14
3.09716e-11
1.63279e-10
1.95539e-10
1.11916e-10
4.45975e-11
1.69998e-11
-9.15055e-12
-1.01719e-11
2.44904e-10
3.79646e-09
3.93627e-09
1.6685e-10
1.48838e-10
-1.46209e-09
-3.29801e-09
-1.80573e-09
-8.49698e-11
-5.96378e-11
1.00507e-09
1.10295e-09
1.1239e-11
4.68245e-10
3.79094e-10
2.701e-11
-7.47194e-12
-2.32879e-12
-1.52236e-11
-5.63357e-11
-1.60064e-10
-1.81377e-10
-3.78842e-12
-5.21587e-10
-4.78314e-10
-3.94755e-12
1.12437e-12
8.4257e-12
1.95657e-12
2.47396e-11
6.06522e-11
1.66296e-11
3.27553e-11
2.02977e-10
1.92152e-10
5.60305e-11
7.11356e-12
2.86493e-12
3.7031e-12
2.20931e-13
3.32531e-10
3.90903e-09
5.78065e-09
5.85071e-10
1.75425e-10
-2.75345e-09
-4.51552e-09
-1.40547e-09
-3.87683e-12
-3.01621e-10
1.40545e-10
7.36982e-10
4.7434e-11
2.08751e-10
2.47701e-10
4.57873e-11
1.0125e-11
7.27293e-12
1.31409e-11
1.78382e-11
-2.62789e-11
-4.97434e-11
-1.70072e-11
-7.22799e-10
-1.20047e-09
-2.43402e-10
9.22001e-13
2.5183e-11
4.28964e-12
3.33681e-12
5.28024e-11
3.14441e-11
3.62712e-11
3.20998e-10
2.83102e-10
3.87272e-11
4.19734e-14
-2.15268e-12
2.63819e-14
2.55287e-14
3.1801e-10
3.24129e-09
4.57186e-09
3.29255e-10
-3.86998e-11
-3.37749e-09
-3.50036e-09
-6.11879e-10
-1.09086e-11
-1.78583e-10
-4.50328e-10
-2.42622e-10
-4.9764e-12
-1.9831e-10
-3.512e-10
1.99439e-10
1.9719e-10
4.60174e-11
8.27333e-11
1.56449e-10
3.83286e-11
-5.31785e-12
-6.88196e-11
-7.41731e-10
-1.87353e-09
-1.1389e-09
-7.88777e-11
-2.3077e-12
7.47296e-12
1.2787e-13
6.01317e-12
1.35937e-12
5.31366e-11
3.0103e-10
2.7255e-10
1.23926e-11
-2.18233e-11
-1.17892e-10
-2.40756e-11
3.72152e-11
3.40291e-10
1.85839e-09
1.64438e-09
4.80006e-12
-3.85741e-10
-2.61406e-09
-1.71045e-09
-1.28407e-10
-5.91499e-11
-4.69597e-11
-3.88207e-10
-3.67399e-10
-2.34544e-11
-6.98476e-10
-2.71228e-10
1.16773e-10
4.92645e-12
1.0047e-10
5.24761e-10
4.74473e-10
2.74957e-10
9.95165e-12
6.14508e-12
-4.02898e-10
-1.18671e-09
-1.48364e-09
-5.31999e-10
-1.44483e-11
-2.74091e-12
-9.29623e-13
1.6722e-12
1.15172e-12
3.01611e-11
3.94664e-10
3.91894e-10
-1.02136e-10
-4.58445e-11
-6.24253e-10
-2.43581e-10
2.34707e-10
2.99148e-10
4.82309e-10
2.13247e-10
1.09373e-11
-2.88651e-10
-1.05474e-09
-7.79901e-10
-9.46505e-11
-2.20938e-11
5.13082e-11
-6.78773e-11
-8.65789e-11
-3.13851e-11
3.46634e-11
1.78117e-10
4.65132e-11
6.49512e-11
-6.14316e-11
-8.93916e-10
-8.97524e-10
2.39226e-11
2.9479e-11
2.77081e-10
3.64674e-10
-2.13151e-10
-6.02335e-10
-6.12016e-10
-2.41974e-10
-3.25543e-11
-9.3281e-11
1.38311e-11
3.53183e-11
1.41812e-10
8.38229e-10
3.42568e-10
-1.63855e-10
-2.15625e-12
-3.27294e-10
2.96401e-11
1.04816e-09
7.01773e-10
1.04288e-10
1.46446e-12
1.42332e-11
-9.71971e-11
-3.09445e-10
-3.88009e-10
-1.53774e-10
-4.10408e-13
1.49737e-11
1.01663e-10
4.43596e-11
1.02945e-12
6.8909e-11
7.53089e-11
2.2522e-11
-6.39169e-11
-3.77775e-10
-9.03278e-10
-9.62059e-10
-2.73115e-10
4.7907e-12
2.30195e-10
5.63623e-10
1.89032e-10
-4.47889e-11
-9.9816e-11
-9.90606e-11
-9.1448e-11
-7.77954e-12
-9.59326e-12
2.99981e-11
3.77945e-12
1.5233e-10
2.73789e-10
2.95913e-10
3.91777e-14
9.19442e-10
2.19889e-09
1.9347e-09
7.79521e-10
5.01999e-11
1.55181e-11
9.00814e-12
-4.91025e-11
-1.74227e-10
-4.14334e-10
-5.02861e-10
-1.79571e-10
-2.89508e-13
1.26835e-11
1.77406e-10
1.11792e-10
1.56812e-12
2.46743e-11
2.61477e-11
-2.24303e-11
-1.458e-10
-3.91283e-10
-5.61652e-10
-2.27076e-10
-1.8196e-11
1.13497e-10
4.99886e-10
1.41752e-10
5.30754e-12
-4.49313e-13
-6.46045e-13
-4.38751e-13
1.26299e-11
5.85831e-11
5.82167e-11
5.89381e-13
-1.28844e-10
-2.74008e-10
4.37909e-12
7.06885e-12
1.05342e-09
2.44776e-09
9.37314e-10
-1.60118e-10
-1.28812e-12
-2.44785e-11
3.06271e-11
2.60208e-11
4.75518e-11
4.60489e-11
-6.6507e-11
-3.82892e-11
-1.29948e-12
9.64297e-11
3.1939e-10
1.26512e-10
1.40327e-11
1.42335e-10
-2.49845e-11
-2.63556e-10
-3.01521e-10
-3.19282e-10
-3.70225e-10
-1.74095e-10
-2.659e-11
-9.96243e-11
6.6419e-10
3.83531e-10
4.68174e-12
2.25256e-11
1.12003e-11
6.09476e-11
2.27431e-11
2.56722e-12
5.89165e-12
7.63443e-12
1.19638e-10
2.77179e-10
3.07852e-10
6.44396e-12
6.05914e-10
1.5774e-09
4.70069e-10
-3.61375e-10
-5.87927e-11
-8.20057e-13
2.7018e-11
1.72791e-10
1.27333e-10
4.07443e-12
1.3663e-11
1.29248e-11
2.18333e-12
1.10333e-12
1.06128e-12
-1.32838e-12
-7.65046e-11
-3.21282e-10
-5.41663e-10
-5.41207e-10
-3.37477e-10
-1.355e-10
-4.65825e-11
-1.22915e-11
-5.43704e-12
-8.51764e-11
-1.52363e-10
-1.54886e-10
-5.66507e-11
-5.68116e-12
-1.14632e-10
-9.31206e-11
-2.84917e-12
-7.03e-12
-1.14935e-13
-1.37267e-14
1.40177e-10
5.82036e-10
4.56211e-10
1.90647e-11
1.41109e-09
2.76847e-09
1.67664e-09
3.37894e-10
1.67049e-11
-1.17907e-12
3.34856e-11
1.62566e-10
1.65359e-10
3.17186e-11
5.01208e-13
-1.04671e-11
-6.91006e-11
-1.43805e-10
-2.08221e-10
-2.35896e-10
-2.28593e-10
-2.09811e-10
-2.00877e-10
-1.84249e-10
-1.10328e-10
-2.29728e-11
-2.5559e-16
6.43519e-12
5.99159e-11
1.0712e-10
-3.2612e-11
-1.03635e-10
-1.3872e-12
-8.641e-11
-1.16123e-10
-1.87319e-11
-3.20657e-11
-4.42703e-11
-6.03431e-13
-2.96983e-11
7.80502e-11
3.42098e-10
2.07522e-10
1.81998e-11
6.51892e-10
1.13928e-09
7.9732e-10
3.10541e-10
6.65215e-11
1.24903e-11
2.38711e-11
6.50466e-11
6.91311e-11
2.22934e-11
-1.27888e-12
-1.77491e-11
-2.26587e-10
-6.10936e-10
-6.94628e-10
-3.536e-10
-8.44038e-11
-2.64263e-11
-4.61581e-11
-7.90052e-11
-1.22884e-11
4.23071e-11
1.18431e-11
3.66535e-10
6.0595e-10
1.98662e-10
-3.25128e-11
-2.51402e-12
-1.78314e-10
-3.33735e-10
-1.6139e-10
-4.54581e-12
-1.46781e-16
-1.22468e-14
-3.25605e-14
-3.79527e-14
-2.28641e-14
-3.02735e-15
-1.24182e-14
-8.23283e-14
-1.50871e-13
-1.32905e-13
-7.27062e-14
-3.31914e-14
-3.67553e-14
-8.77592e-15
-6.38619e-15
-1.12126e-14
-1.51255e-15
-7.7405e-16
-2.01987e-15
-1.44016e-15
-5.23328e-14
-8.43212e-14
-5.67981e-15
-3.74194e-13
-5.97391e-13
-5.27279e-13
-4.19059e-13
-4.59944e-13
-3.33896e-13
-1.20993e-13
-1.57998e-15
-2.01957e-14
-4.30196e-14
-5.65169e-15
-2.58517e-14
2.1336e-13
9.3715e-14
1.08394e-15
-9.83308e-17
-3.56667e-15
-5.14484e-13
-4.87701e-13
-3.26167e-13
-4.40673e-14
-2.39528e-12
-5.21056e-12
-3.55915e-12
-2.11467e-12
-7.03866e-13
-2.19147e-13
-1.82932e-13
-2.13729e-12
-9.61053e-12
-2.0622e-11
-3.62044e-11
-6.60022e-11
-9.59159e-11
-9.08051e-11
-4.32357e-11
-2.83646e-12
-1.30718e-12
-1.04023e-12
-7.62059e-14
-8.47605e-13
-1.02045e-13
-1.65931e-12
-4.86018e-14
-4.32468e-12
-1.24318e-12
-5.18021e-12
-3.37736e-11
-4.401e-11
-2.17493e-11
-6.02884e-13
-1.53652e-12
2.07495e-14
1.02695e-11
1.48474e-12
2.9126e-13
-2.3303e-13
-6.53446e-12
-4.86008e-12
-1.48106e-12
-1.03643e-12
-1.86774e-11
-4.16603e-11
-2.48966e-11
-4.52019e-12
-6.0305e-13
-2.80828e-12
-3.80217e-12
-1.74183e-13
-1.89536e-11
-7.0176e-11
-1.63535e-10
-3.11255e-10
-4.28768e-10
-3.98078e-10
-1.97043e-10
-9.36367e-12
-2.33094e-11
-1.63959e-11
-1.09759e-11
-3.64156e-13
-2.75253e-11
-6.6092e-11
-1.85609e-11
-6.90326e-13
-1.05102e-12
-1.21613e-11
-8.78641e-11
-1.42884e-10
-8.57163e-11
-9.60221e-12
-8.25888e-12
-4.88096e-12
2.0866e-13
2.37282e-12
2.02857e-12
-8.67191e-13
-1.61006e-11
-1.35397e-11
-2.06729e-12
-1.97408e-12
-2.78746e-11
-5.84212e-11
-3.53299e-11
-2.60992e-12
-2.0676e-12
-1.70043e-12
-7.79325e-12
-9.39882e-13
-1.57149e-11
-8.98712e-11
-2.3177e-10
-3.98943e-10
-4.44731e-10
-3.25965e-10
-1.16467e-10
-5.00442e-14
5.40811e-11
3.1135e-10
6.67156e-11
-6.39006e-13
-7.23486e-11
-1.30472e-10
-2.55255e-11
-2.12785e-12
-3.20477e-12
-1.58101e-12
-3.14376e-11
-7.36062e-11
-4.12366e-11
-6.94088e-13
-1.35792e-11
3.18791e-11
3.78365e-11
1.85675e-12
2.31177e-14
5.21738e-12
2.79942e-12
-3.29526e-11
-3.50196e-12
-2.44622e-12
-4.09219e-11
-7.24804e-11
-3.45978e-11
-9.78029e-13
4.75139e-12
3.60751e-11
9.33498e-12
-5.23835e-12
-9.22469e-12
-1.22937e-10
-3.79905e-10
-6.19098e-10
-5.58753e-10
-3.32086e-10
-9.99673e-11
-1.99012e-13
3.88109e-10
1.63467e-09
6.27575e-10
2.26313e-13
-1.66128e-10
-2.98283e-10
-5.33289e-11
-3.05428e-12
-4.58099e-12
8.07062e-16
-1.93485e-12
-2.48567e-11
-1.57672e-11
-2.86303e-14
6.78257e-12
1.48906e-10
1.94313e-10
1.19548e-12
2.82197e-11
2.85793e-12
7.24932e-11
-5.29701e-11
-3.47065e-11
-3.51177e-12
-1.03281e-10
-1.62521e-10
-5.86207e-11
7.56533e-12
1.44204e-11
9.9208e-11
5.4164e-11
-1.77081e-11
-5.49418e-13
-1.6822e-10
-7.14942e-10
-1.12359e-09
-8.522e-10
-4.67667e-10
-1.89982e-10
-2.3769e-13
5.7252e-10
3.92964e-09
2.39057e-09
2.10564e-11
-3.0905e-10
-6.86848e-10
-1.64503e-10
-1.45902e-13
-2.17088e-11
-2.95817e-12
-9.60285e-12
-3.56505e-11
-1.30989e-11
-5.82661e-13
2.39661e-11
2.11596e-10
3.82993e-10
3.90788e-11
1.23421e-10
3.13048e-11
3.82923e-11
1.63572e-10
-1.11164e-10
-5.12729e-13
-2.26358e-10
-3.73104e-10
-1.61157e-10
1.04604e-11
2.16539e-11
2.2288e-10
1.35955e-10
-5.11412e-11
-8.81015e-12
-1.87939e-10
-1.13509e-09
-1.69115e-09
-1.06573e-09
-4.9541e-10
-2.63945e-10
-4.69903e-12
6.09549e-10
6.99544e-09
5.82558e-09
1.19857e-10
-3.41042e-10
-9.69151e-10
-2.90327e-10
-9.2808e-12
-1.91822e-11
-1.10683e-11
-9.27913e-12
-3.63958e-11
-5.83877e-13
-2.87677e-11
3.4099e-11
3.01732e-10
5.40866e-10
2.02152e-10
1.06113e-10
2.85717e-10
3.66307e-11
4.99194e-10
8.49295e-12
-2.66534e-12
-4.15319e-10
-7.59195e-10
-3.38839e-10
-1.15665e-11
3.32931e-11
3.87835e-10
4.25426e-10
-1.47162e-10
-8.03662e-11
-1.91269e-10
-1.5652e-09
-2.1077e-09
-1.22923e-09
-4.9847e-10
-2.67952e-10
-1.06395e-11
6.15787e-10
1.01667e-08
1.04134e-08
3.73574e-10
-1.37674e-10
-7.87313e-10
-3.24055e-10
-4.5729e-11
-1.95459e-12
-1.3321e-12
-3.03461e-11
-5.96307e-11
-5.4123e-12
-2.29136e-10
-1.49736e-10
3.7368e-10
6.64642e-10
4.02767e-10
4.53947e-12
4.74501e-10
2.46136e-10
3.4329e-10
4.20739e-10
-4.52959e-12
-6.23568e-10
-1.51129e-09
-6.63422e-10
-4.98522e-12
4.06343e-11
5.60633e-10
1.0202e-09
6.72514e-11
-2.4149e-10
-1.64079e-10
-1.83171e-09
-2.28576e-09
-1.18141e-09
-5.05407e-10
-2.71627e-10
-6.21921e-12
7.85587e-10
1.26645e-08
1.46751e-08
7.75348e-10
3.30844e-10
-5.71265e-11
-2.67342e-10
-1.06172e-10
-3.43876e-12
-2.79795e-12
-7.50852e-11
-1.29947e-10
-9.29401e-14
-3.83963e-10
-6.47175e-10
1.57297e-10
7.32581e-10
5.02254e-10
4.29703e-11
2.48216e-10
1.53588e-10
7.74703e-11
4.56252e-10
-1.40999e-13
-1.1817e-09
-2.86998e-09
-1.05591e-09
-8.025e-13
-1.30855e-10
7.02612e-10
1.41287e-09
7.45652e-10
-1.69876e-10
-1.57211e-10
-1.79493e-09
-1.97543e-09
-1.13397e-09
-9.61768e-10
-4.47883e-10
1.31596e-12
1.39656e-09
1.39711e-08
1.69752e-08
1.11163e-09
1.13073e-09
1.0829e-09
-2.43768e-10
-1.86358e-10
-1.56141e-11
-1.20764e-11
-1.17917e-10
-2.01598e-10
-3.38356e-12
-3.73376e-10
-8.76759e-10
-2.38676e-10
5.51397e-10
4.87383e-10
1.20189e-10
1.64544e-11
2.35767e-12
5.00454e-11
4.0754e-11
6.16496e-11
-2.60985e-09
-4.34749e-09
-1.29094e-09
-7.41804e-15
-2.59398e-10
5.10614e-10
1.77905e-09
1.28204e-09
3.50112e-11
-1.08685e-10
-1.27482e-09
-1.85948e-09
-1.98311e-09
-2.13727e-09
-6.72581e-10
3.68551e-14
2.40992e-09
1.41802e-08
1.67984e-08
1.27037e-09
1.98349e-09
1.61363e-09
-4.86711e-10
-2.19739e-10
-1.90571e-11
-2.91968e-11
-1.90672e-10
-2.97966e-10
-1.18685e-11
-4.23404e-10
-1.00641e-09
-3.61173e-10
3.45103e-10
3.46007e-10
1.21299e-10
2.22852e-11
2.85321e-10
3.33331e-10
1.61573e-10
5.7276e-10
-3.65847e-09
-4.26714e-09
-1.08068e-09
-1.35557e-11
-4.11558e-11
2.93768e-10
1.71586e-09
2.20734e-09
3.47448e-10
-2.24713e-11
-9.65882e-10
-2.4783e-09
-3.45364e-09
-2.91594e-09
-6.64412e-10
5.56875e-12
3.08333e-09
1.39134e-08
1.52318e-08
1.3007e-09
1.87725e-09
8.66008e-10
-6.30038e-10
-1.80469e-10
-2.43818e-11
-5.53702e-11
-2.49679e-10
-3.7695e-10
-4.70263e-11
-4.30047e-10
-1.3335e-09
-5.60234e-10
2.31926e-10
1.85776e-10
6.66997e-11
5.24899e-11
4.91324e-10
8.54459e-10
3.01476e-10
1.14062e-09
-2.79673e-09
-2.44101e-09
-4.77464e-10
-1.51779e-11
3.71333e-12
2.26556e-10
1.64715e-09
3.49758e-09
1.28028e-09
1.76271e-12
-8.14596e-10
-2.95938e-09
-3.93718e-09
-2.61723e-09
-5.76252e-10
2.28757e-12
2.58274e-09
1.20866e-08
1.16778e-08
7.87225e-10
1.10927e-09
4.69503e-10
-1.88675e-10
-9.80402e-11
-2.92104e-11
-7.69287e-11
-2.36743e-10
-3.104e-10
-1.08529e-10
-2.0697e-10
-1.48629e-09
-1.10349e-09
3.1273e-11
9.31512e-11
1.46292e-11
7.10992e-11
4.18513e-10
4.55205e-10
9.14245e-11
4.05499e-10
-8.03465e-10
-4.68807e-10
-5.14441e-11
-4.0264e-13
2.52699e-12
3.19349e-11
1.36264e-09
5.16963e-09
3.31374e-09
2.53969e-11
-4.51481e-10
-2.59972e-09
-3.11216e-09
-1.90688e-09
-5.40768e-10
-4.49492e-12
1.28453e-09
7.86897e-09
6.77028e-09
3.26982e-10
8.26396e-10
1.08686e-09
7.69935e-11
-1.45636e-10
-9.86036e-11
-1.253e-10
-1.64514e-10
-6.2694e-11
-3.526e-11
-2.41083e-11
-9.89883e-10
-1.46967e-09
-3.48993e-10
5.04849e-11
8.7253e-12
7.02741e-11
2.6401e-10
7.65648e-11
4.4597e-11
3.28179e-10
6.67249e-10
2.51769e-10
9.01218e-12
-1.8554e-15
-1.30353e-13
6.28414e-15
7.37599e-10
5.8513e-09
5.83777e-09
2.78325e-10
-4.61317e-11
-1.52421e-09
-1.94884e-09
-1.43628e-09
-5.82112e-10
-5.10135e-13
4.00025e-10
4.59449e-09
4.63504e-09
4.30154e-10
3.13207e-10
3.90078e-10
-4.91581e-10
-7.5215e-10
-4.42223e-10
-1.57424e-10
-4.36496e-11
1.36645e-11
3.82766e-11
-9.54622e-14
-3.62416e-10
-1.24504e-09
-6.10979e-10
-3.21664e-11
1.38119e-11
6.54859e-11
1.83226e-10
1.98675e-11
1.13808e-10
6.04652e-10
8.25648e-10
2.7733e-10
5.28245e-12
-1.23518e-12
-1.95731e-12
2.05927e-12
5.63629e-10
5.55381e-09
7.09473e-09
7.46397e-10
6.98758e-11
-8.51059e-10
-1.59271e-09
-1.58545e-09
-7.23861e-10
-1.33896e-11
7.33622e-11
2.20755e-09
2.95802e-09
3.77525e-10
1.04574e-10
-5.72605e-10
-2.08645e-09
-1.72117e-09
-4.92344e-10
-2.91613e-11
5.98233e-13
1.59046e-12
3.64565e-12
6.17925e-12
-9.63351e-11
-7.77715e-10
-7.60025e-10
-1.35045e-10
2.72585e-12
6.22322e-11
1.07605e-10
1.55746e-11
1.15351e-10
5.31559e-10
7.47565e-10
3.54731e-10
2.31829e-11
6.66281e-13
-1.5571e-11
1.29666e-11
6.19742e-10
4.82144e-09
6.95697e-09
1.13115e-09
1.33617e-11
-9.32582e-10
-1.91132e-09
-1.76653e-09
-6.51916e-10
-1.39206e-11
7.72837e-11
8.40833e-10
8.46478e-10
1.97333e-11
-3.53708e-10
-2.8131e-09
-3.05391e-09
-6.87165e-10
2.33419e-10
2.48263e-10
6.97447e-11
9.45816e-12
-2.39808e-11
-3.08225e-12
-4.50274e-11
-3.84724e-10
-7.70751e-10
-3.80494e-10
-5.76917e-11
1.99763e-11
1.30812e-11
1.18922e-12
1.00867e-10
5.00094e-10
7.84627e-10
4.10953e-10
3.96424e-11
1.05017e-12
-3.55678e-11
3.03092e-11
8.78657e-10
3.66523e-09
4.37324e-09
6.57421e-10
-1.32959e-11
-1.06668e-09
-1.71814e-09
-1.04362e-09
-2.09579e-10
8.26072e-13
5.29911e-11
1.02022e-10
-1.09655e-10
-1.54115e-11
-1.39566e-09
-2.35464e-09
-4.62906e-10
5.5122e-11
1.13816e-10
7.46058e-10
9.02172e-10
6.98619e-11
1.80891e-10
2.44763e-10
1.33235e-10
-1.10167e-10
-2.72113e-10
-3.34189e-10
-2.05099e-10
-7.97553e-11
-5.33316e-11
-3.06005e-13
2.32457e-11
3.33913e-10
7.30765e-10
4.91642e-10
2.11798e-11
-1.66979e-12
-1.34147e-10
1.72531e-10
1.31521e-09
2.23023e-09
1.22701e-09
2.94008e-11
-4.82028e-11
-6.07865e-10
-5.10158e-10
-1.52804e-10
-1.86327e-11
-2.82766e-15
-1.12599e-11
-4.22732e-11
-2.50024e-12
-2.08126e-10
-5.06004e-10
-3.83263e-11
4.72483e-11
6.74135e-11
3.10007e-10
-5.10504e-11
-1.60087e-10
9.19603e-11
7.33338e-10
3.00391e-09
1.70304e-09
2.32129e-10
-4.31367e-11
-4.06796e-11
-7.37729e-11
-1.00689e-10
-1.02458e-10
-1.09896e-10
-2.98922e-12
4.34346e-11
3.44448e-10
2.84397e-10
8.33618e-12
-9.96096e-13
8.69774e-11
1.33481e-09
2.87268e-09
1.62776e-09
7.41023e-11
1.49806e-10
1.07158e-10
-3.7127e-11
-3.18065e-11
-9.51387e-12
-2.61999e-12
-3.49449e-14
-4.90647e-12
-8.90986e-12
-7.07534e-14
-2.98941e-11
-1.85498e-12
1.34697e-10
2.4754e-10
8.25422e-11
-6.09752e-10
-1.27667e-09
-6.41048e-10
-8.03648e-13
8.58433e-10
4.54015e-09
3.7086e-09
5.57143e-10
-2.96523e-12
-6.3866e-11
-9.49571e-11
-1.25955e-14
-2.08406e-11
-9.98154e-11
-6.48654e-11
-4.58118e-12
-1.87738e-10
-2.09212e-10
5.09618e-11
4.18805e-11
1.96238e-10
2.10485e-09
4.31183e-09
2.41465e-09
1.24489e-10
2.06405e-10
3.385e-10
1.09968e-10
-2.45466e-11
-3.93815e-11
-1.44337e-11
-1.556e-12
-2.02622e-11
9.22403e-12
2.18922e-11
4.70673e-13
3.59927e-11
1.19107e-10
6.19993e-11
-2.28461e-10
-7.64303e-10
-1.18873e-09
-6.23948e-10
-1.63846e-12
4.97874e-10
3.37816e-09
2.2906e-09
1.72266e-10
-3.96723e-12
-2.43302e-10
-2.63623e-10
-3.69671e-11
6.7552e-14
5.39088e-11
3.09208e-11
-4.62418e-12
-1.01524e-10
-5.10115e-10
-4.09696e-10
-5.28873e-12
1.61703e-10
2.14768e-09
3.43589e-09
1.36376e-09
6.83106e-11
8.6197e-11
4.13884e-10
2.96327e-10
5.18565e-11
2.36697e-12
8.8143e-15
1.97017e-12
2.54088e-11
8.3595e-11
5.54924e-11
2.0775e-12
5.6731e-11
-2.59602e-10
-9.84237e-10
-1.27079e-09
-1.04642e-09
-6.75087e-10
-1.80728e-10
-1.47945e-11
4.09496e-10
2.48358e-09
1.84441e-09
8.27415e-11
4.83338e-11
-1.91852e-10
-2.3277e-10
-3.53887e-11
1.67352e-11
1.03003e-13
2.38251e-11
1.32548e-12
2.95353e-12
-9.91154e-11
-9.7901e-11
1.28047e-11
1.11229e-10
1.66607e-09
2.95669e-09
8.81677e-10
-3.75163e-11
1.54717e-13
9.87726e-12
2.97426e-13
1.74259e-11
4.15035e-12
6.05988e-13
3.33001e-12
3.81424e-12
1.3738e-12
-4.60264e-12
-6.93381e-11
-2.53614e-10
-3.56055e-10
-3.16187e-10
-3.1853e-10
-3.51828e-10
-2.57312e-10
-4.60035e-11
1.22239e-12
2.33852e-10
5.9821e-10
1.82397e-10
-7.55103e-11
-2.13787e-11
-3.58525e-10
-4.61076e-10
-1.50283e-10
-2.20843e-11
-1.24374e-12
1.87342e-12
2.01098e-11
6.54044e-11
8.01906e-11
1.04343e-11
8.50441e-11
6.88743e-10
1.7839e-09
2.19425e-09
1.15763e-09
2.08961e-10
1.21431e-11
4.26854e-13
-3.41497e-13
-8.31967e-13
-1.11467e-12
-2.67333e-11
-8.40742e-11
-1.32011e-10
-1.33581e-10
-8.26068e-11
-2.43723e-11
5.8964e-12
2.24726e-11
1.66535e-11
-9.38325e-11
-2.03392e-10
-8.88538e-11
2.62365e-13
8.76427e-11
5.4027e-10
4.75776e-10
-1.68925e-10
-1.36662e-10
-3.34519e-11
-4.02281e-10
-4.58448e-10
-1.75563e-10
-1.24798e-10
-3.30452e-12
-4.97014e-13
-1.20758e-13
1.04414e-11
2.42228e-11
2.91378e-14
1.12542e-10
3.58912e-10
4.34391e-10
3.23513e-10
1.42004e-10
2.43785e-11
2.97315e-13
6.77242e-13
3.59645e-14
1.67333e-12
2.22324e-12
5.44453e-13
-6.19072e-12
-1.2227e-10
-2.47854e-10
-1.24394e-10
-4.91139e-12
-4.11384e-12
-3.53585e-13
-3.00019e-13
-2.67023e-11
-4.21513e-11
3.62501e-11
3.3579e-13
2.6232e-10
6.38576e-10
3.94091e-10
-3.64127e-11
-1.87935e-11
-1.53548e-10
-7.84313e-10
-1.03588e-09
-5.86539e-10
-2.00681e-16
-4.8759e-14
-1.8003e-14
-2.36436e-15
-6.02291e-14
-4.07749e-14
-1.53697e-14
-1.10099e-15
-2.51722e-15
-2.23159e-14
-8.09926e-14
-5.47207e-14
-2.12008e-15
-4.57134e-14
-9.06868e-16
-5.72949e-15
-4.07494e-15
-1.22941e-14
-1.31591e-13
-1.45163e-13
-5.76567e-18
-4.84537e-15
-1.24407e-14
-1.69138e-13
-4.04553e-13
-3.8624e-13
-2.76604e-13
-2.31022e-13
-1.07795e-13
-3.10409e-18
-2.00273e-13
-3.77899e-13
-2.15646e-13
-3.48794e-14
-8.89586e-16
1.01921e-14
2.86113e-15
1.10012e-14
-5.621e-14
-2.0075e-13
-4.8538e-12
-4.15781e-12
-5.01044e-13
-1.17042e-12
-3.15871e-12
-1.39183e-12
-2.16035e-13
-3.22849e-13
-9.98081e-13
-4.02103e-16
-1.84354e-12
-4.79821e-12
-5.85463e-12
-6.51503e-12
-1.9796e-11
-3.87072e-11
-5.61592e-11
-7.74179e-11
-1.00616e-10
-4.39886e-11
-1.97415e-12
-8.27534e-12
-1.44295e-12
-4.87137e-12
-1.83098e-11
-2.42315e-11
-1.50066e-11
-3.94411e-12
-1.06622e-12
-2.10717e-11
-4.86146e-11
-4.08893e-11
-1.32703e-11
-7.94082e-13
-9.65627e-15
1.88635e-13
5.8905e-12
5.32893e-12
2.56605e-13
-9.08605e-14
-2.23192e-11
-2.30382e-11
-4.73972e-12
-1.28486e-12
-5.65177e-12
-2.40709e-12
-2.39377e-13
-9.25841e-13
-4.79122e-12
-2.94174e-12
-2.98891e-15
-4.44848e-12
-1.67299e-11
-4.10813e-11
-9.67947e-11
-1.6094e-10
-1.96044e-10
-2.35873e-10
-3.11676e-10
-1.79416e-10
-1.68161e-12
-4.27281e-11
1.01349e-11
-3.79542e-12
-2.19533e-11
-3.82076e-11
-2.6803e-11
-6.15127e-12
-4.73427e-12
-6.5512e-11
-1.53616e-10
-1.36699e-10
-4.45019e-11
-1.4151e-12
-2.53925e-12
-8.54471e-14
1.6685e-12
1.99667e-11
5.55669e-12
-6.12017e-13
-7.42414e-12
-2.77122e-11
-5.28926e-12
-2.079e-12
-1.16597e-11
-7.42471e-12
-2.1501e-12
-2.55904e-15
-2.86616e-12
-3.82646e-12
-9.57423e-13
-2.92072e-12
-2.40544e-11
-6.868e-11
-1.38015e-10
-1.70773e-10
-1.44024e-10
-1.32996e-10
-1.81878e-10
-1.10789e-10
-7.35144e-12
7.96247e-11
2.68989e-10
2.93582e-11
-5.44408e-12
-1.97165e-11
-1.453e-11
-1.651e-12
-5.14397e-12
-5.21598e-11
-1.36961e-10
-1.17028e-10
-2.33105e-11
-7.52543e-13
1.00242e-12
2.44993e-11
2.5617e-12
4.26974e-11
5.21662e-11
1.13867e-11
1.68442e-10
4.36901e-12
-7.28543e-13
-1.86272e-12
-1.92022e-11
-1.74962e-11
-8.1787e-12
-2.49878e-12
-2.65591e-13
-3.45938e-12
-3.32503e-12
-7.35152e-13
-3.00436e-11
-1.14669e-10
-2.10375e-10
-1.9887e-10
-9.29335e-11
-4.84203e-11
-1.15315e-10
-1.07779e-10
-1.09084e-11
3.29228e-10
1.08185e-09
1.73977e-10
2.04587e-12
-7.05103e-12
-9.97411e-12
-8.3261e-13
-1.90225e-13
-1.76331e-11
-1.0252e-10
-1.12336e-10
-2.06511e-11
-1.82209e-12
2.72005e-11
1.08783e-10
4.65313e-11
4.43003e-11
2.16662e-10
5.71364e-12
6.4708e-10
2.13764e-10
-5.51555e-12
-7.40131e-13
-2.70463e-11
-2.9876e-11
-1.64281e-11
-9.26232e-12
-1.82221e-12
-2.7557e-12
-1.12789e-11
-2.18689e-13
-3.63229e-11
-1.82643e-10
-3.18783e-10
-2.36489e-10
-2.17593e-11
5.85257e-11
-8.25056e-11
-2.01879e-10
-8.26527e-12
2.483e-10
2.38465e-09
7.79629e-10
1.09858e-11
-2.85716e-13
-6.07589e-12
-2.36177e-12
-1.3964e-12
-1.99211e-11
-1.19916e-10
-1.55361e-10
-3.49567e-11
-4.61129e-12
1.61006e-11
1.67024e-10
1.43073e-10
1.35942e-11
4.62874e-10
5.46167e-11
8.46341e-10
1.19458e-09
-1.11807e-11
-1.71175e-13
-4.08673e-11
-5.3398e-11
-2.78036e-11
-1.80503e-11
-1.51058e-11
-8.83254e-15
-1.71592e-11
-3.10523e-12
-4.2676e-11
-2.3169e-10
-3.43406e-10
-1.26353e-10
1.23994e-10
1.84991e-10
-6.72531e-11
-3.14577e-10
-3.46031e-12
3.05431e-10
4.32444e-09
2.34485e-09
5.34033e-11
-4.03539e-12
-1.47287e-12
-1.3437e-13
-4.6776e-12
-5.97651e-11
-2.0149e-10
-2.16658e-10
-3.29829e-11
-3.00967e-11
-5.29249e-11
1.54626e-10
2.58964e-10
1.303e-11
4.45245e-10
5.13022e-10
2.88104e-10
2.89618e-09
1.8789e-10
-1.00703e-11
-4.60036e-11
-7.74789e-11
-4.33678e-11
-1.84214e-11
-2.13936e-11
-1.14867e-11
-1.73379e-12
-1.52088e-12
-6.07287e-11
-2.77023e-10
-2.66487e-10
4.85998e-11
2.61926e-10
3.18296e-10
-1.83967e-10
-4.40862e-10
-1.6909e-12
9.98675e-10
7.24773e-09
4.52655e-09
1.67035e-10
-9.40094e-12
-3.59907e-11
-1.14223e-11
-2.18328e-11
-1.32216e-10
-3.36843e-10
-3.00204e-10
-1.60653e-11
-1.84804e-10
-3.73847e-10
1.2333e-11
3.02936e-10
1.15119e-10
1.43466e-10
8.85336e-10
3.89504e-16
3.15374e-09
8.47898e-10
-2.63333e-11
-4.27869e-11
-8.71927e-11
-3.89573e-11
-5.64111e-12
-6.24247e-12
-2.54603e-11
-4.12059e-11
-3.2881e-11
-1.52815e-10
-3.28375e-10
-1.73341e-10
5.02706e-11