/*--------------------------------*- C++ -*----------------------------------*\
| =========                 |                                                 |
| \\      /  F ield         | OpenFOAM: The Open Source CFD Toolbox           |
|  \\    /   O peration     | Version:  5.0                                   |
|   \\  /    A nd           | Web:      www.OpenFOAM.org                      |
|    \\/     M anipulation  |                                                 |
\*---------------------------------------------------------------------------*/
FoamFile
{
    version     2.0;
    format      ascii;
    class       volScalarField;
    location    "50.4676134421789371";
    object      VVUMean;
}
// * * * * * * * * * * * * * * * * * * * * * * * * * * * * * * * * * * * * * //

dimensions      [0 3 -3 0 0 0 0];

internalField   nonuniform List<scalar> 
60000
(
4.94318e-15
7.78423e-14
7.93128e-14
9.74811e-15
1.56718e-15
1.14409e-16
-3.67504e-16
-3.40041e-16
-8.61916e-16
-8.51566e-16
-9.62884e-15
-1.08096e-14
-2.75127e-15
-2.95019e-15
-1.2615e-14
-1.70867e-14
-3.09946e-16
-1.32343e-14
-1.48877e-13
-3.53425e-13
-6.16095e-13
-2.13315e-13
-3.36378e-14
-2.78745e-14
-2.82765e-13
-8.48752e-13
-3.41556e-13
-1.87149e-13
-1.53763e-13
-5.4335e-14
-4.40281e-14
-1.56775e-13
-3.82832e-13
-3.15583e-13
-4.31052e-14
1.10924e-14
-1.8369e-16
-1.00451e-14
-2.49665e-14
-2.43894e-14
-2.94441e-12
2.3685e-13
2.97407e-13
3.07339e-13
6.98121e-13
1.93163e-14
-4.0674e-15
-2.1991e-14
-2.85794e-15
-4.60885e-13
-2.48526e-12
-2.28429e-12
-2.1016e-13
-2.62075e-14
-1.18444e-13
-2.96363e-13
-1.33061e-12
-2.79033e-12
-7.33564e-13
-1.30495e-12
-5.05804e-12
-4.70802e-12
-4.34553e-13
-1.40008e-11
-8.86861e-11
-1.59464e-10
-9.48396e-11
-1.14037e-11
-2.53712e-12
-2.0564e-12
-1.39544e-13
-6.73019e-14
-2.34033e-12
-6.71715e-12
-5.12611e-12
-1.02048e-13
1.43799e-13
-2.4672e-14
-8.69114e-13
-3.65411e-12
-1.45097e-11
-8.84803e-12
-4.95644e-13
1.66193e-13
2.00419e-12
6.14136e-13
-8.95305e-17
-8.22857e-14
-6.23964e-14
-4.15477e-13
-5.7267e-12
-1.11981e-11
-3.03261e-12
-1.35273e-14
-9.67625e-13
-6.28326e-12
-1.85973e-11
-2.24671e-11
-2.25341e-12
-1.20891e-11
-4.63704e-11
-4.78003e-11
-3.94355e-12
-5.92744e-11
-2.81064e-10
-4.14868e-10
-2.22712e-10
-2.52361e-11
-4.98422e-12
-8.81314e-12
-8.85943e-13
-2.27616e-13
-6.10937e-14
-3.20539e-12
-9.57493e-12
-2.41963e-12
3.62096e-14
-2.23601e-13
-6.32368e-13
-3.37341e-12
-1.88717e-11
-1.43418e-11
8.52852e-14
3.98455e-13
5.14792e-12
4.37567e-12
4.57008e-13
1.10915e-13
-4.91468e-15
-4.4035e-15
-5.6273e-12
-1.76681e-11
-4.03671e-12
7.20736e-14
9.52386e-13
-9.13676e-12
-3.34878e-11
-2.41485e-11
-6.10597e-14
1.69422e-11
2.77417e-11
-5.53414e-11
-5.61913e-12
-1.15735e-10
-3.9534e-10
-4.17491e-10
-1.43345e-10
-2.29213e-12
-1.68706e-11
1.09095e-12
6.41112e-12
4.18432e-14
8.76277e-14
-1.95288e-13
-3.64385e-12
3.32364e-13
7.89814e-14
8.61834e-12
3.17119e-13
-2.71497e-13
-1.6444e-11
-2.58965e-11
4.90515e-12
4.21271e-13
1.06552e-11
1.05186e-11
2.73858e-12
8.79909e-14
4.78607e-15
-1.16032e-13
-3.90608e-12
-3.64433e-11
-1.01434e-11
3.03837e-12
5.26383e-12
-8.96705e-12
-6.2218e-11
-3.01193e-11
2.7284e-12
1.20179e-10
4.23116e-10
4.29927e-11
-1.39708e-11
-2.34221e-10
-6.6782e-10
-5.26922e-10
-1.44372e-10
-1.08695e-12
-2.98611e-11
2.2995e-11
4.25669e-11
5.27906e-12
1.19901e-13
1.1338e-13
4.84841e-12
1.08936e-11
2.35672e-12
1.77756e-11
2.60377e-11
-4.58711e-13
-2.04478e-12
-5.55924e-11
-9.77485e-12
3.44054e-13
9.38914e-12
1.25218e-11
4.73165e-12
3.05118e-13
1.16695e-13
1.31287e-12
-4.20502e-13
-5.42048e-11
-6.91919e-11
7.40339e-12
1.60166e-12
-4.03486e-11
-1.87616e-10
-9.24636e-11
3.81426e-12
1.97985e-10
1.25371e-09
4.82687e-10
-3.96946e-11
-4.15759e-10
-1.11165e-09
-6.70403e-10
-1.85009e-10
-4.88422e-12
-5.12274e-11
-8.505e-11
7.62826e-12
1.89651e-11
1.9254e-12
3.06895e-13
5.92069e-12
1.8057e-11
7.45745e-12
9.54043e-12
5.82382e-11
1.42257e-11
7.89355e-13
-2.33272e-11
-3.69411e-11
-1.01708e-12
1.54597e-12
6.02245e-12
2.92065e-12
1.44148e-12
1.58997e-12
4.50591e-12
3.85981e-13
-6.26054e-12
-1.1374e-10
-3.90223e-11
-3.43962e-13
-1.52919e-10
-4.99745e-10
-2.2477e-10
-6.53705e-13
2.48344e-10
2.24172e-09
1.60034e-09
-4.2059e-11
-4.72465e-10
-1.1996e-09
-6.52308e-10
-2.31694e-10
-1.29809e-11
-3.9624e-11
-1.36219e-10
-1.31684e-10
-3.78357e-11
7.41522e-12
1.22161e-11
1.68702e-11
2.3276e-11
9.70468e-12
1.68225e-12
4.08062e-11
4.88744e-11
2.06968e-11
3.52425e-13
-6.22777e-12
-1.52476e-12
-8.36632e-13
-8.8644e-13
4.05932e-14
1.36048e-13
1.87922e-12
4.79106e-12
8.82433e-13
1.07099e-10
4.61878e-11
-1.31894e-10
-9.20636e-12
-3.97761e-10
-1.00509e-09
-4.41185e-10
-7.17478e-12
2.68876e-10
2.9358e-09
3.15109e-09
8.00857e-11
-2.71494e-10
-8.79982e-10
-7.16269e-10
-3.39714e-10
-2.13526e-11
-3.01684e-11
-9.71653e-11
-1.19096e-10
-1.06542e-10
-7.15081e-11
5.691e-13
5.6031e-11
4.99379e-11
1.25798e-11
4.23427e-13
1.68223e-11
4.43121e-11
3.65907e-11
4.78015e-12
4.75887e-12
3.05862e-13
-2.01242e-12
-6.1224e-12
-7.44294e-14
-2.03226e-13
7.27735e-15
3.24939e-14
7.41069e-12
2.79995e-10
5.17316e-10
-1.96349e-10
-1.48445e-11
-7.4454e-10
-1.57462e-09
-6.65357e-10
-1.67098e-11
1.92123e-10
3.08276e-09
4.37382e-09
3.54764e-10
8.50953e-11
-2.64921e-10
-8.28108e-10
-4.23716e-10
-1.80935e-11
-3.06719e-11
-6.86945e-11
-5.74977e-11
-4.59118e-11
-8.04324e-11
-1.09669e-10
1.24053e-11
1.02887e-10
3.88998e-11
5.03831e-13
7.33572e-12
2.27934e-11
2.50364e-11
2.2973e-11
1.62815e-12
5.31344e-12
-3.13882e-12
-1.74495e-11
-1.01489e-12
-8.10319e-13
-1.72397e-13
1.29513e-12
5.49711e-11
5.0563e-10
1.02134e-09
-9.0972e-11
-6.82459e-12
-1.13971e-09
-1.93908e-09
-7.43264e-10
-2.36367e-11
3.15503e-11
2.30125e-09
4.73395e-09
6.06131e-10
6.68182e-10
7.06677e-10
-8.36151e-10
-3.84044e-10
-5.91247e-12
-3.48171e-11
-4.75656e-11
-2.15704e-11
-6.64878e-12
-2.20381e-11
-9.38842e-11
-8.99113e-11
5.7413e-11
8.33796e-11
1.66003e-11
6.68895e-14
6.91987e-12
2.72636e-12
1.83327e-11
2.75352e-11
3.08075e-11
-1.31504e-11
-1.78401e-11
-1.3109e-12
-4.452e-13
-2.15485e-15
-1.28821e-12
7.20398e-11
7.15744e-10
1.27868e-09
1.51784e-10
-3.5224e-11
-1.38169e-09
-2.03504e-09
-7.51587e-10
-2.67711e-11
-1.86399e-11
8.8851e-10
3.77877e-09
7.94224e-10
1.19293e-09
1.55267e-09
-5.41275e-10
-2.29467e-10
-7.44104e-13
-3.16388e-11
-2.54149e-11
-3.0454e-12
-9.15123e-13
-1.71643e-12
-4.86193e-11
-7.83924e-11
2.00182e-11
7.89288e-11
4.25733e-11
1.03724e-11
5.71099e-13
3.74239e-12
8.90537e-13
4.25976e-11
4.53181e-11
-2.17499e-12
1.19032e-11
1.78967e-12
-8.73357e-15
-3.18054e-15
-1.5404e-12
1.88138e-11
6.40667e-10
1.33885e-09
2.54299e-10
-3.78941e-11
-1.17201e-09
-1.81626e-09
-7.44512e-10
-4.66744e-11
-2.0405e-12
2.01427e-10
2.01303e-09
8.9451e-10
8.66128e-10
1.44906e-09
-1.2845e-10
-8.02032e-11
-1.77249e-12
-1.99218e-11
-6.75053e-12
-4.16101e-12
-2.79677e-11
-4.43043e-12
-3.10729e-11
-7.40518e-11
2.16409e-11
6.64054e-11
3.49101e-11
1.56298e-11
9.33204e-12
5.55022e-12
2.01756e-12
7.84828e-12
2.72518e-11
6.88693e-11
7.9963e-11
1.73013e-11
7.81192e-14
-2.09829e-14
-2.78575e-12
-1.42123e-11
4.29729e-10
1.25234e-09
3.54504e-10
7.04801e-12
-6.16193e-10
-1.26843e-09
-7.48027e-10
-1.47678e-10
-1.96931e-12
1.0637e-10
9.85936e-10
6.8791e-10
2.51486e-10
8.90625e-10
2.75706e-10
5.07264e-12
-1.31462e-12
-8.78507e-12
-1.97894e-13
-3.17534e-11
-9.80602e-11
-3.97312e-11
-2.05341e-11
-1.03173e-10
-6.90791e-12
4.58006e-11
1.44871e-11
6.03307e-12
1.35724e-11
1.65764e-11
-1.0839e-11
-1.46278e-12
8.79591e-12
1.13679e-10
1.35854e-10
5.27474e-11
6.69179e-12
3.50555e-13
-3.89326e-13
-3.65587e-11
2.73556e-10
1.41374e-09
6.81047e-10
8.41437e-12
-1.41957e-10
-7.55134e-10
-8.6386e-10
-4.20158e-10
-1.47767e-11
3.04561e-11
5.68279e-10
3.34872e-10
3.09885e-11
5.40204e-10
3.50432e-10
2.20368e-11
-2.23659e-13
-1.96516e-12
-3.79065e-12
-5.3575e-11
-1.40444e-10
-8.61492e-11
-1.14694e-11
-1.49969e-10
-6.70034e-11
2.09618e-11
3.53261e-12
1.37377e-13
1.09998e-11
1.96749e-11
1.87907e-12
-1.14248e-14
1.75456e-11
7.37313e-11
8.21867e-11
4.5032e-11
1.73566e-11
6.14821e-12
-4.06076e-12
-7.61104e-12
1.69907e-10
1.80086e-09
1.56175e-09
4.32778e-11
4.40398e-11
-7.28773e-10
-1.43977e-09
-6.97855e-10
-2.29811e-11
-1.62356e-11
4.81075e-10
4.29709e-10
3.98237e-12
2.16459e-10
1.47293e-10
7.50803e-12
-2.69328e-12
-1.08772e-12
-7.7213e-12
-2.7406e-11
-7.48941e-11
-7.04449e-11
-1.02215e-11
-2.46665e-10
-1.82723e-10
2.30621e-12
2.83086e-13
3.32966e-12
1.91972e-12
1.3577e-11
2.67466e-11
5.33963e-12
2.00591e-11
9.3006e-11
7.87051e-11
2.08048e-11
2.47087e-12
1.23845e-12
1.49337e-12
1.43985e-13
2.02308e-10
1.90113e-09
2.36779e-09
1.72118e-10
4.47603e-11
-1.35347e-09
-1.87387e-09
-5.12194e-10
-2.61601e-12
-1.42276e-10
9.23838e-11
2.97651e-10
1.1819e-11
1.01677e-10
1.00247e-10
1.73309e-11
4.16508e-12
3.06145e-12
6.16419e-12
7.1173e-12
-1.41099e-11
-1.95471e-11
-1.77061e-11
-3.61174e-10
-4.89554e-10
-7.93079e-11
2.64356e-13
1.13357e-11
1.07988e-12
2.97463e-12
2.54944e-11
1.09878e-11
2.42107e-11
1.5002e-10
1.13874e-10
1.24548e-11
-1.75388e-14
-9.08898e-13
9.50397e-15
2.26505e-13
1.88213e-10
1.56476e-09
1.85915e-09
8.94424e-11
-9.08696e-11
-1.58316e-09
-1.39491e-09
-2.06401e-10
-9.60536e-12
-9.00314e-11
-2.05836e-10
-9.61637e-11
-1.27282e-12
-1.01172e-10
-1.32404e-10
9.97164e-11
7.51253e-11
1.80023e-11
3.94595e-11
6.59367e-11
1.19224e-11
-1.53605e-12
-4.18296e-11
-3.71508e-10
-8.19443e-10
-4.3022e-10
-2.29269e-11
-7.20096e-13
2.79205e-12
5.57162e-14
3.34291e-12
3.58213e-13
3.08768e-11
1.41314e-10
1.06516e-10
3.19499e-12
-1.47538e-11
-5.09464e-11
-6.91511e-12
1.80469e-11
1.80337e-10
8.63995e-10
6.32996e-10
3.14377e-12
-2.51332e-10
-1.16936e-09
-6.65392e-10
-3.70101e-11
-2.79452e-11
-2.59898e-11
-1.87144e-10
-1.37781e-10
-2.65579e-11
-3.11047e-10
-8.26423e-11
4.39544e-11
1.61006e-12
5.67079e-11
2.34551e-10
1.96827e-10
1.0697e-10
2.29285e-12
-4.70745e-12
-2.02926e-10
-5.44769e-10
-6.17699e-10
-1.91812e-10
-3.62719e-12
-9.51234e-13
-2.18379e-13
9.93744e-13
4.6152e-13
1.9917e-11
1.92301e-10
1.42905e-10
-4.11115e-11
-3.9937e-11
-2.81597e-10
-7.81703e-11
1.03239e-10
1.31614e-10
2.09926e-10
7.58662e-11
5.79762e-12
-1.58569e-10
-4.6805e-10
-3.09811e-10
-2.89575e-11
-1.0448e-11
2.52727e-11
-3.88555e-11
-2.91796e-11
-1.81335e-11
2.69243e-11
7.0213e-11
1.75499e-11
3.03776e-11
-5.43544e-11
-4.17779e-10
-3.57098e-10
2.81406e-11
6.93349e-12
1.40941e-10
1.35936e-10
-1.14176e-10
-2.70977e-10
-2.52618e-10
-9.02039e-11
-1.10999e-11
-3.84404e-11
1.13696e-11
1.14368e-11
8.62877e-11
3.67875e-10
1.06539e-10
-6.53557e-11
-6.49483e-12
-1.54304e-10
5.44532e-11
4.57326e-10
2.69675e-10
3.43844e-11
1.5516e-12
4.13364e-12
-4.93197e-11
-1.41134e-10
-1.63492e-10
-5.61835e-11
-2.56748e-13
1.04771e-11
4.35861e-11
1.58769e-11
1.73083e-12
3.19354e-11
2.99147e-11
7.43511e-12
-3.53791e-11
-1.84031e-10
-4.11118e-10
-4.03941e-10
-9.61567e-11
1.19597e-12
1.2445e-10
2.36057e-10
6.69858e-11
-2.39141e-11
-4.38827e-11
-4.13433e-11
-3.88991e-11
-3.97827e-12
-2.47315e-12
1.18453e-11
4.28602e-12
6.82775e-11
1.17262e-10
1.17399e-10
6.89002e-12
4.70412e-10
9.60045e-10
7.89772e-10
2.88753e-10
1.41217e-11
7.90548e-12
2.18944e-12
-2.41911e-11
-8.32539e-11
-1.89877e-10
-2.11753e-10
-6.43908e-11
-1.22637e-12
1.20795e-11
7.98096e-11
4.18598e-11
4.05723e-13
1.14921e-11
9.68608e-12
-1.31359e-11
-7.05673e-11
-1.81738e-10
-2.44319e-10
-8.2195e-11
-1.28182e-11
7.41493e-11
2.09852e-10
5.09439e-11
1.5772e-12
-1.56519e-13
-4.49633e-13
-1.36027e-13
3.28646e-12
3.09722e-11
2.07961e-11
-2.36239e-13
-7.04378e-11
-1.15123e-10
6.19639e-12
1.4107e-11
5.42003e-10
1.03952e-09
3.16068e-10
-6.83282e-11
-8.77127e-13
-8.66973e-12
1.34444e-11
1.09017e-11
2.16907e-11
1.57139e-11
-3.12426e-11
-1.3135e-11
-4.14298e-13
5.32506e-11
1.37844e-10
4.31238e-11
1.15581e-11
5.95516e-11
-2.47831e-11
-1.18729e-10
-1.30395e-10
-1.42033e-10
-1.61998e-10
-6.37925e-11
-2.10742e-11
-1.70822e-11
3.03114e-10
1.42411e-10
1.0909e-12
9.16379e-12
5.40955e-12
2.69435e-11
1.03485e-11
6.003e-13
2.48391e-12
5.93119e-12
5.79334e-11
1.24768e-10
1.22027e-10
3.0835e-12
3.1728e-10
6.72519e-10
1.35265e-10
-1.48595e-10
-1.91863e-11
-2.15136e-13
1.71898e-11
8.08865e-11
4.91508e-11
9.70512e-13
6.52637e-12
5.21783e-12
7.33509e-13
5.70254e-13
3.06535e-13
-1.42914e-12
-4.14936e-11
-1.51376e-10
-2.40001e-10
-2.29465e-10
-1.36977e-10
-5.33767e-11
-1.87172e-11
-4.45847e-12
-4.09138e-12
-4.0677e-11
-6.69624e-11
-6.55152e-11
-2.02145e-11
-5.63698e-12
-5.48757e-11
-3.5716e-11
-1.86288e-12
-2.83087e-12
-4.14567e-14
1.33448e-12
7.70632e-11
2.65551e-10
1.68641e-10
3.24834e-11
6.97453e-10
1.1861e-09
6.5162e-10
1.18308e-10
5.05748e-12
-4.27331e-13
1.82948e-11
7.38539e-11
6.51948e-11
1.01823e-11
4.0695e-13
-6.62414e-12
-3.35033e-11
-6.5756e-11
-9.15701e-11
-1.01582e-10
-9.79585e-11
-9.0657e-11
-8.74975e-11
-7.83363e-11
-4.37207e-11
-7.89556e-12
-2.78589e-14
3.88013e-12
2.88585e-11
4.35493e-11
-2.19327e-11
-4.08985e-11
-7.0874e-13
-4.25473e-11
-4.63266e-11
-5.79427e-12
-1.67961e-11
-1.76404e-11
-3.21533e-13
-1.32862e-11
4.69658e-11
1.54688e-10
7.57782e-11
2.09805e-11
3.15451e-10
4.85993e-10
3.18864e-10
1.1804e-10
2.39557e-11
5.09074e-12
1.16721e-11
2.89277e-11
2.76258e-11
7.41265e-12
-4.08886e-13
-1.20168e-11
-1.13015e-10
-2.75337e-10
-2.88935e-10
-1.35495e-10
-3.1044e-11
-1.13391e-11
-2.20851e-11
-3.42224e-11
-1.09936e-12
1.59086e-11
1.21551e-11
1.79643e-10
2.51512e-10
6.69283e-11
-1.3442e-11
-4.26828e-12
-8.86707e-11
-1.41615e-10
-5.90924e-11
-1.07331e-12
-3.45213e-17
-6.91118e-15
-1.45175e-14
-1.71109e-14
-1.00419e-14
-5.86996e-15
-6.17266e-15
-4.00274e-14
-8.51881e-14
-9.62807e-14
-6.69337e-14
-5.75528e-14
-6.34778e-14
-2.23698e-14
-8.9679e-15
-2.37154e-14
-3.67441e-14
-6.28928e-14
-5.16678e-14
-2.14391e-15
-7.5069e-14
-2.18207e-13
-4.47642e-14
-2.82259e-13
-6.13217e-13
-7.54494e-13
-6.73221e-13
-5.31579e-13
-2.47333e-13
-3.70125e-14
-1.4721e-14
-1.48046e-14
-8.92831e-14
-1.8971e-13
-2.38564e-14
1.55079e-13
9.21134e-14
4.37638e-15
-3.13225e-16
-1.10052e-15
-1.76649e-13
-1.53506e-13
-1.07084e-13
-4.43819e-14
-1.14241e-12
-2.05762e-12
-1.42067e-12
-7.93825e-13
-2.6268e-13
-1.67571e-13
-2.03166e-13
-1.36827e-12
-5.09383e-12
-9.99982e-12
-1.72485e-11
-3.09103e-11
-4.37793e-11
-3.95835e-11
-1.74063e-11
-1.27146e-12
-8.64481e-13
-3.7105e-13
-7.21604e-14
-3.02395e-13
-4.37103e-14
-4.18332e-13
-7.22997e-13
-3.41484e-12
-6.36117e-13
-3.30394e-12
-1.81558e-11
-2.08681e-11
-9.04099e-12
-3.40194e-13
-1.13454e-12
4.63441e-14
6.60727e-12
6.03282e-13
1.5431e-13
-9.43526e-14
-2.58036e-12
-1.77645e-12
-4.81143e-13
-6.40478e-13
-8.50753e-12
-1.75237e-11
-1.00135e-11
-1.5688e-12
-3.85318e-13
-1.14908e-12
-1.34319e-12
-2.47093e-13
-9.43969e-12
-3.19946e-11
-7.26846e-11
-1.361e-10
-1.84135e-10
-1.67507e-10
-7.80125e-11
-2.85469e-12
-1.00799e-11
-4.72954e-12
-3.9404e-12
-8.02442e-14
-1.24714e-11
-2.58864e-11
-5.67238e-12
-7.74502e-13
-3.1859e-13
-7.37706e-12
-4.24614e-11
-6.14388e-11
-3.40808e-11
-2.78002e-12
-3.86261e-12
-1.34707e-12
2.38196e-13
1.02722e-12
1.12812e-12
-4.54347e-13
-7.22039e-12
-5.29829e-12
-6.86791e-13
-1.17245e-12
-1.25471e-11
-2.46507e-11
-1.40424e-11
-7.92695e-13
-9.35592e-13
-5.51194e-13
-3.07312e-12
-2.50241e-13
-8.3321e-12
-4.17277e-11
-1.02899e-10
-1.70929e-10
-1.84165e-10
-1.31008e-10
-4.15088e-11
-5.62068e-13
3.58344e-11
1.40879e-10
2.4725e-11
-1.84273e-13
-3.36948e-11
-5.1055e-11
-7.68733e-12
-1.57163e-12
-1.1479e-12
-8.98183e-13
-1.40517e-11
-2.995e-11
-1.4825e-11
-2.2051e-13
-5.47397e-12
1.48637e-11
1.20259e-11
1.95756e-12
4.10607e-14
2.35935e-12
-5.80588e-13
-1.35634e-11
-1.20215e-12
-1.60296e-12
-1.86247e-11
-3.02043e-11
-1.32385e-11
-2.70914e-13
2.74264e-12
1.62624e-11
3.34517e-12
-1.87081e-12
-5.83311e-12
-5.95192e-11
-1.71417e-10
-2.64556e-10
-2.29372e-10
-1.31722e-10
-3.52935e-11
1.89254e-13
2.1581e-10
7.32562e-10
2.36963e-10
1.58697e-14
-8.17977e-11
-1.20949e-10
-1.72062e-11
-2.1903e-12
-1.53321e-12
3.95466e-14
-6.50286e-13
-1.01588e-11
-5.47872e-12
-1.54522e-13
5.20967e-12
6.77397e-11
7.35315e-11
5.19022e-13
1.13824e-11
2.42421e-12
3.29323e-11
-2.61382e-11
-1.29118e-11
-2.94947e-12
-4.80229e-11
-6.85052e-11
-2.14929e-11
2.99468e-12
7.95882e-12
4.36481e-11
2.0847e-11
-7.74268e-12
-1.30817e-12
-8.56264e-11
-3.26409e-10
-4.81209e-10
-3.51147e-10
-1.89823e-10
-7.31012e-11
-2.394e-13
3.27569e-10
1.78824e-09
9.29288e-10
5.26834e-12
-1.60204e-10
-2.8649e-10
-5.85908e-11
-9.21828e-13
-9.59161e-12
-8.76808e-13
-5.22371e-12
-1.53719e-11
-4.56403e-12
-3.80095e-13
1.29191e-11
9.55044e-11
1.55448e-10
1.12837e-11
5.67478e-11
9.10212e-12
2.71497e-11
5.85776e-11
-4.56123e-11
-2.20521e-12
-1.06932e-10
-1.59399e-10
-6.14933e-11
4.77132e-12
1.32885e-11
9.95663e-11
5.09657e-11
-2.36209e-11
-2.21892e-12
-1.01028e-10
-5.20189e-10
-7.18332e-10
-4.34309e-10
-2.00464e-10
-1.06803e-10
-1.11134e-12
3.75723e-10
3.24698e-09
2.30442e-09
3.32036e-11
-1.88076e-10
-4.10173e-10
-1.09382e-10
-2.32132e-12
-9.73745e-12
-3.89348e-12
-5.52122e-12
-1.48948e-11
-1.8871e-13
-1.30761e-11
2.0245e-11
1.35529e-10
2.29178e-10
7.27727e-11
5.7499e-11
1.10166e-10
8.9118e-12
2.18739e-10
-8.76469e-12
-1.21398e-12
-2.01729e-10
-3.22202e-10
-1.31001e-10
-3.20851e-12
1.97125e-11
1.83074e-10
1.67759e-10
-7.1773e-11
-2.64653e-11
-1.10583e-10
-7.16494e-10
-8.8888e-10
-4.96537e-10
-1.99952e-10
-1.10783e-10
-2.41608e-12
4.04011e-10
4.81098e-09
4.162e-09
1.06589e-10
-9.61767e-11
-3.43217e-10
-1.28639e-10
-1.52455e-11
-1.50497e-12
-3.64473e-13
-1.55794e-11
-2.28621e-11
-6.55143e-12
-1.06479e-10
-4.85958e-11
1.72576e-10
2.819e-10
1.57612e-10
6.87888e-12
2.05501e-10
8.88558e-11
1.7866e-10
1.5169e-10
-1.29278e-12
-3.11906e-10
-6.4531e-10
-2.50174e-10
-1.15409e-12
2.6914e-11
2.65973e-10
4.3997e-10
-3.68428e-12
-8.65984e-11
-1.04597e-10
-8.37241e-10
-9.56067e-10
-4.75462e-10
-2.09101e-10
-1.1015e-10
-1.42871e-12
4.99872e-10
6.04041e-09
5.90574e-09
2.22221e-10
1.33736e-10
-4.94412e-11
-1.17195e-10
-3.93115e-11
-9.95582e-13
-2.05324e-12
-3.69003e-11
-5.15636e-11
-3.36668e-12
-1.90423e-10
-2.61489e-10
9.80551e-11
3.12207e-10
2.01246e-10
1.29701e-11
1.18906e-10
5.88083e-11
5.44238e-11
1.74052e-10
-2.48989e-12
-5.98309e-10
-1.21646e-09
-3.89634e-10
-5.72756e-12
-4.31697e-11
3.34261e-10
6.21424e-10
2.80576e-10
-6.6278e-11
-1.0304e-10
-8.14616e-10
-8.2312e-10
-4.75769e-10
-4.18434e-10
-1.68464e-10
6.30581e-13
7.96782e-10
6.62617e-09
6.86151e-09
3.16745e-10
5.33489e-10
4.05176e-10
-1.23386e-10
-7.1352e-11
-5.5722e-12
-6.86712e-12
-5.71395e-11
-8.11674e-11
-1.6619e-12
-1.90542e-10
-3.71531e-10
-6.51597e-11
2.45387e-10
1.97482e-10
4.43256e-11
1.07811e-11
2.33437e-12
2.93477e-11
1.16017e-11
6.37212e-12
-1.26762e-09
-1.81782e-09
-4.72205e-10
-4.14134e-12
-1.11193e-10
2.68064e-10
7.81075e-10
5.12898e-10
6.17236e-12
-7.14184e-11
-5.8603e-10
-8.06336e-10
-8.77878e-10
-9.12897e-10
-2.40488e-10
4.56476e-12
1.28721e-09
6.59919e-09
6.8149e-09
3.58572e-10
9.51752e-10
5.81478e-10
-2.24409e-10
-8.31324e-11
-7.26409e-12
-1.56178e-11
-9.07315e-11
-1.2024e-10
-3.03279e-12
-2.17926e-10
-4.26006e-10
-1.19416e-10
1.57329e-10
1.41081e-10
4.71124e-11
8.62566e-12
1.39675e-10
1.26673e-10
1.03815e-10
1.69287e-10
-1.71365e-09
-1.75571e-09
-3.9516e-10
-3.13231e-12
-1.60769e-11
1.55974e-10
7.96083e-10
9.14143e-10
1.15792e-10
-2.15391e-11
-4.704e-10
-1.11882e-09
-1.52049e-09
-1.21346e-09
-2.32098e-10
1.49729e-11
1.62095e-09
6.36133e-09
6.1871e-09
3.69015e-10
8.89815e-10
2.5993e-10
-2.67754e-10
-6.79115e-11
-1.00905e-11
-2.84041e-11
-1.17209e-10
-1.55412e-10
-1.16271e-11
-2.33198e-10
-5.72886e-10
-1.96087e-10
1.05579e-10
7.35105e-11
2.70215e-11
2.40233e-11
2.43408e-10
3.23722e-10
1.9447e-10
3.89627e-10
-1.29204e-09
-9.74936e-10
-1.73236e-10
-4.47299e-12
3.02114e-12
1.22024e-10
7.95919e-10
1.51401e-09
4.643e-10
1.63385e-13
-4.28146e-10
-1.36006e-09
-1.70433e-09
-1.07482e-09
-2.02958e-10
9.20503e-12
1.38576e-09
5.49908e-09
4.67774e-09
2.15548e-10
5.06035e-10
1.49633e-10
-8.47502e-11
-3.79733e-11
-1.26642e-11
-3.80409e-11
-1.08324e-10
-1.32389e-10
-3.46154e-11
-1.34138e-10
-6.76294e-10
-4.2187e-10
2.87555e-11
3.43117e-11
6.28103e-12
3.46274e-11
1.9226e-10
1.73112e-10
6.4361e-11
1.2949e-10
-3.61132e-10
-1.77922e-10
-1.77255e-11
4.67729e-14
1.0101e-12
2.31394e-11
7.12051e-10
2.32844e-09
1.27177e-09
5.93665e-12
-2.70647e-10
-1.19772e-09
-1.33354e-09
-7.8773e-10
-1.97271e-10
-3.88218e-12
7.34186e-10
3.59556e-09
2.6587e-09
8.52256e-11
3.98099e-10
4.33455e-10
1.37609e-11
-6.03762e-11
-4.2047e-11
-5.6749e-11
-6.99514e-11
-2.3708e-11
-1.52327e-11
-2.68907e-11
-4.86553e-10
-6.01658e-10
-1.18587e-10
2.06539e-11
3.46062e-12
3.80156e-11
1.15837e-10
2.49178e-11
2.37218e-11
1.55677e-10
2.81514e-10
9.2095e-11
2.55263e-12
-3.27415e-15
1.63817e-14
6.36892e-13
4.31529e-10
2.76041e-09
2.32951e-09
7.38746e-11
-6.34171e-11
-7.09512e-10
-8.3976e-10
-6.02117e-10
-2.21773e-10
-1.89334e-12
2.62147e-10
2.15031e-09
1.84518e-09
1.27676e-10
1.60732e-10
1.39048e-10
-2.35736e-10
-3.15045e-10
-1.76412e-10
-6.16429e-11
-1.68712e-11
9.19552e-12
1.50257e-11
-1.19629e-12
-2.00474e-10
-5.42139e-10
-2.28688e-10
-8.5165e-12
6.24797e-12
3.4662e-11
7.89727e-11
5.23679e-12
5.97648e-11
2.78188e-10
3.41293e-10
1.00832e-10
1.26408e-12
-1.04043e-12
-6.5109e-13
1.84139e-12
3.36923e-10
2.67998e-09
2.89392e-09
2.27824e-10
1.67563e-11
-4.16545e-10
-7.03136e-10
-6.69892e-10
-2.78246e-10
-3.09646e-12
6.52685e-11
1.05925e-09
1.19433e-09
1.15828e-10
4.78385e-11
-3.08123e-10
-9.22087e-10
-6.87981e-10
-1.8072e-10
-8.93463e-12
1.59899e-13
7.55846e-13
1.3957e-12
2.558e-12
-5.95534e-11
-3.61528e-10
-2.99248e-10
-4.67325e-11
2.42073e-12
3.31007e-11
4.80153e-11
4.17507e-12
6.14056e-11
2.42646e-10
3.14788e-10
1.34724e-10
6.62288e-12
-2.88745e-13
-6.98863e-12
9.15239e-12
3.44896e-10
2.32721e-09
2.87599e-09
3.69364e-10
-4.05243e-12
-4.62491e-10
-8.47851e-10
-7.37115e-10
-2.44306e-10
-3.38845e-12
5.00659e-11
3.88688e-10
3.24162e-10
4.58006e-12
-2.19313e-10
-1.2976e-09
-1.22456e-09
-2.29398e-10
1.06499e-10
1.01921e-10
2.30181e-11
5.28044e-12
-1.13898e-11
1.09413e-12
-2.5945e-11
-1.8677e-10
-3.28781e-10
-1.42853e-10
-2.08654e-11
1.28005e-11
7.28649e-12
3.42203e-13
5.31059e-11
2.31773e-10
3.33727e-10
1.57893e-10
1.22261e-11
6.69541e-14
-1.75356e-11
2.42945e-11
4.47216e-10
1.70169e-09
1.7883e-09
2.10071e-10
-2.27285e-11
-5.16506e-10
-7.38294e-10
-4.16803e-10
-7.32838e-11
2.34621e-13
2.80148e-11
3.57637e-11
-4.76397e-11
-2.28921e-11
-6.86789e-10
-9.61515e-10
-1.51008e-10
2.23989e-11
6.14681e-11
3.54388e-10
3.59978e-10
1.78456e-11
8.58756e-11
1.03396e-10
4.68308e-11
-5.38315e-11
-1.21678e-10
-1.40397e-10
-8.33183e-11
-3.02665e-11
-2.0551e-11
-9.30537e-14
1.51738e-11
1.61227e-10
3.19138e-10
1.88812e-10
3.44e-12
-3.46049e-12
-6.07335e-11
1.06159e-10
6.11443e-10
9.53514e-10
4.64676e-10
6.91753e-12
-4.07929e-11
-2.73528e-10
-2.04993e-10
-5.72384e-11
-6.44728e-12
-7.62418e-14
-5.99792e-12
-1.8143e-11
-7.58529e-13
-1.08445e-10
-2.05905e-10
-5.10762e-12
1.78675e-11
3.48944e-11
1.36663e-10
-4.93225e-11
-4.7976e-11
2.74475e-11
4.20498e-10
1.29806e-09
6.49368e-10
7.47197e-11
-1.87198e-11
-1.83074e-11
-3.35829e-11
-4.33565e-11
-5.02713e-11
-4.3779e-11
-7.26857e-13
2.64615e-11
1.52737e-10
1.05755e-10
-6.29781e-13
-2.24911e-13
5.92358e-11
6.58628e-10
1.23723e-09
6.13383e-10
1.84541e-11
7.12274e-11
3.75579e-11
-1.76556e-11
-1.24617e-11
-3.64179e-12
-9.78022e-13
-6.36077e-14
-2.34289e-12
-3.49464e-12
-3.64647e-13
-1.37141e-11
3.10884e-12
6.24387e-11
1.05749e-10
1.60495e-11
-3.03817e-10
-5.57983e-10
-2.3609e-10
1.77978e-13
5.03447e-10
2.04623e-09
1.44338e-09
1.81025e-10
-7.48262e-13
-3.32992e-11
-3.6912e-11
-1.21276e-12
-1.26089e-11
-4.5038e-11
-2.45316e-11
-5.52604e-12
-9.14858e-11
-8.58284e-11
2.65596e-11
1.26298e-11
1.2488e-10
1.02991e-09
1.86321e-09
9.12686e-10
3.2028e-11
1.04478e-10
1.3926e-10
3.95255e-11
-1.23169e-11
-1.6272e-11
-5.09174e-12
-1.37218e-12
-8.41354e-12
5.63573e-12
8.6896e-12
1.51221e-13
1.84228e-11
5.12044e-11
1.78422e-11
-1.17459e-10
-3.5651e-10
-5.18145e-10
-2.3293e-10
-5.84398e-12
3.20051e-10
1.51148e-09
8.65158e-10
4.97321e-11
-7.03697e-12
-1.13769e-10
-1.04087e-10
-1.1089e-11
6.62651e-13
2.64045e-11
9.77455e-12
-1.19146e-12
-5.96168e-11
-2.35483e-10
-1.60337e-10
-2.84883e-13
1.12809e-10
1.03282e-09
1.4322e-09
4.95623e-10
1.85372e-11
5.00266e-11
1.84385e-10
1.14667e-10
1.78631e-11
7.33156e-13
1.59333e-14
1.18157e-12
1.31211e-11
3.73926e-11
2.02534e-11
2.62396e-12
1.94826e-11
-1.43557e-10
-4.53467e-10
-5.49308e-10
-4.42726e-10
-2.76585e-10
-6.28e-11
-9.65483e-12
2.44636e-10
1.12007e-09
6.97694e-10
2.10992e-11
1.65461e-11
-9.13794e-11
-9.231e-11
-1.09944e-11
7.29968e-12
7.02139e-13
1.04242e-11
3.1342e-13
-9.61975e-13
-4.91019e-11
-3.78135e-11
4.58395e-12
7.79546e-11
8.18916e-10
1.23275e-09
2.99846e-10
-1.58405e-11
6.02548e-14
3.9157e-12
7.67792e-13
7.35036e-12
1.23821e-12
4.0129e-13
1.54883e-12
1.58662e-12
4.95332e-13
-2.92068e-12
-3.57393e-11
-1.16102e-10
-1.52733e-10
-1.35905e-10
-1.41312e-10
-1.5428e-10
-1.04357e-10
-1.50472e-11
2.47363e-12
1.20756e-10
2.53052e-10
5.37023e-11
-2.85534e-11
-1.79213e-11
-1.68415e-10
-1.90701e-10
-5.33106e-11
-7.42099e-12
-4.11528e-13
1.21154e-12
1.02581e-11
3.02138e-11
3.25165e-11
2.67282e-12
5.07392e-11
3.36868e-10
8.06161e-10
9.23759e-10
4.46919e-10
7.31132e-11
3.92947e-12
4.60589e-14
-2.7233e-13
-3.01599e-13
-1.05086e-12
-1.39587e-11
-3.90039e-11
-5.78645e-11
-5.61222e-11
-3.24785e-11
-8.5461e-12
3.23574e-12
1.01343e-11
4.26876e-12
-4.90038e-11
-8.87738e-11
-3.21997e-11
8.89084e-14
5.25557e-11
2.47876e-10
1.79138e-10
-8.65349e-11
-4.68974e-11
-2.62125e-11
-1.86321e-10
-1.88174e-10
-6.54058e-11
-4.24661e-11
-7.68618e-13
-1.95736e-13
2.23667e-14
6.08183e-12
1.03754e-11
7.80095e-13
5.84329e-11
1.6149e-10
1.8347e-10
1.30723e-10
5.37488e-11
8.28244e-12
6.77147e-14
2.98232e-13
8.54425e-15
7.81774e-13
7.59618e-13
4.59456e-13
-5.04586e-12
-6.02418e-11
-1.05496e-10
-4.54561e-11
-1.18799e-12
-1.89216e-12
-9.60071e-14
-5.15758e-13
-1.45763e-11
-1.58297e-11
1.55947e-11
2.79857e-12
1.34366e-10
2.76575e-10
1.47091e-10
-2.24192e-11
-4.80095e-12
-8.95956e-11
-3.64377e-10
-4.37597e-10
-2.26773e-10
-1.31414e-15
-2.54034e-14
-8.40689e-15
-2.3521e-15
-3.02424e-14
-2.12151e-14
-5.62165e-15
-1.49792e-15
-6.7287e-16
-2.25281e-14
-7.91724e-14
-8.19353e-14
-2.59115e-14
-2.40894e-14
-6.4036e-15
-9.53142e-15
-1.33841e-14
-1.52879e-14
-3.44076e-14
-6.89661e-14
-3.24093e-14
-2.11199e-15
-4.4879e-15
-9.2352e-14
-2.77979e-13
-2.50099e-13
-1.84366e-13
-1.41927e-13
-4.00009e-14
-2.22257e-14
-1.35838e-13
-1.05835e-13
-6.2033e-14
-4.29702e-14
2.07863e-15
1.29556e-14
8.84767e-15
1.43337e-14
-4.46929e-14
-1.05163e-13
-1.96375e-12
-1.48748e-12
-1.35647e-13
-7.01597e-13
-1.42685e-12
-6.21851e-13
-8.5005e-14
-1.60996e-13
-3.46552e-13
-1.70076e-14
-1.05834e-12
-2.50543e-12
-2.87954e-12
-3.51013e-12
-9.79826e-12
-1.9307e-11
-2.87858e-11
-4.08761e-11
-5.01781e-11
-1.709e-11
-2.67172e-12
-2.91044e-12
-4.0475e-13
-2.12324e-12
-8.59903e-12
-1.11701e-11
-6.90835e-12
-1.78122e-12
-9.28718e-13
-1.16715e-11
-2.40771e-11
-1.80932e-11
-4.83879e-12
-2.40111e-13
-2.36129e-14
2.01784e-13
3.61045e-12
2.58888e-12
9.31851e-14
-7.54956e-14
-9.59355e-12
-8.65046e-12
-1.51752e-12
-8.70405e-13
-2.51966e-12
-9.91586e-13
-8.49934e-14
-4.83002e-13
-2.00044e-12
-1.17443e-12
-1.15087e-14
-2.1215e-12
-7.55094e-12
-1.79506e-11
-4.28589e-11
-7.07145e-11
-8.61849e-11
-1.05843e-10
-1.37671e-10
-7.01064e-11
-2.68295e-12
-1.51325e-11
5.6106e-12
-1.54961e-12
-1.01837e-11
-1.72402e-11
-1.16496e-11
-2.35653e-12
-3.00121e-12
-3.20918e-11
-6.81515e-11
-5.55707e-11
-1.61513e-11
-3.53067e-13
-9.82578e-13
1.33517e-14
1.4974e-12
9.75727e-12
1.98828e-12
-3.42019e-13
-4.19629e-12
-1.04748e-11
-1.7634e-12
-1.29782e-12
-5.15734e-12
-3.07647e-12
-8.61784e-13
-4.85495e-15
-1.26301e-12
-1.61692e-12
-3.09283e-13
-1.54018e-12
-1.11216e-11
-3.01547e-11
-5.95246e-11
-7.13775e-11
-5.89845e-11
-5.58029e-11
-7.62814e-11
-3.97678e-11
-5.89986e-12
5.04076e-11
1.11939e-10
1.08072e-11
-2.58076e-12
-8.84549e-12
-5.96177e-12
-5.06028e-13
-2.71421e-12
-2.44662e-11
-5.90507e-11
-4.54289e-11
-7.37281e-12
-6.54476e-13
1.5608e-12
1.00555e-11
5.75773e-13
2.31416e-11
2.09711e-11
6.54169e-12
7.00805e-11
2.04414e-12
-2.72009e-13
-1.27412e-12
-8.73474e-12
-7.44099e-12
-3.47705e-12
-1.02885e-12
-1.97878e-13
-1.56125e-12
-1.21959e-12
-5.76008e-13
-1.44851e-11
-5.16309e-11
-9.11296e-11
-8.15703e-11
-3.61099e-11
-2.03915e-11
-5.19367e-11
-4.01262e-11
-8.61091e-12
1.85753e-10
4.57878e-10
6.26033e-11
5.00439e-13
-3.3164e-12
-4.10917e-12
-2.28401e-13
1.33362e-13
-8.66901e-12
-4.57175e-11
-4.47454e-11
-6.55567e-12
-9.24472e-13
1.49295e-11
4.62755e-11
1.55941e-11
2.62959e-11
9.26505e-11
7.20849e-12
2.93201e-10
7.78499e-11
-2.41342e-12
-7.83275e-13
-1.24407e-11
-1.25753e-11
-6.97027e-12
-3.96125e-12
-5.67121e-13
-1.52482e-12
-4.67139e-12
-7.40229e-14
-1.82667e-11
-8.30768e-11
-1.38288e-10
-9.487e-11
-3.76639e-12
2.56679e-11
-4.48206e-11
-8.03537e-11
-1.06711e-11
1.67396e-10
1.0466e-09
2.85617e-10
3.01358e-12
-1.76206e-13
-2.88385e-12
-7.8503e-13
-7.47807e-13
-1.06035e-11
-5.55593e-11
-6.39951e-11
-1.1781e-11
-2.78735e-12
1.02886e-11
7.24968e-11
5.35298e-11
1.2346e-11
2.06788e-10
1.36368e-11
4.53474e-10
4.59648e-10
-8.13877e-12
-2.00693e-13
-1.91055e-11
-2.22385e-11
-1.16053e-11
-7.83567e-12
-6.2764e-12
-5.456e-14
-7.61527e-12
-8.94276e-13
-2.1977e-11
-1.04687e-10
-1.44937e-10
-4.36773e-11
5.94163e-11
8.00396e-11
-4.42224e-11
-1.26463e-10
-8.38782e-12
2.18502e-10
1.95059e-09
8.87918e-10
1.55322e-11
-2.23393e-12
-4.69333e-13
-4.23621e-14
-2.7235e-12
-2.95807e-11
-9.19323e-11
-8.84053e-11
-1.03179e-11
-1.56265e-11
-1.81636e-11
7.0863e-11
1.04231e-10
3.13391e-12
2.13881e-10
1.83508e-10
2.22978e-10
1.19452e-09
5.42643e-11
-2.70697e-12
-2.21732e-11
-3.32819e-11
-1.75593e-11
-7.77511e-12
-9.57045e-12
-4.90785e-12
-9.23596e-13
-4.20096e-13
-3.08757e-11
-1.22719e-10
-1.05221e-10
3.14392e-11
1.19639e-10
1.34451e-10
-1.04977e-10
-1.75018e-10
-5.13872e-12
5.85643e-10
3.27303e-09
1.75148e-09
5.09282e-11
-6.20176e-12
-1.47317e-11
-4.76427e-12
-1.11441e-11
-6.40231e-11
-1.51098e-10
-1.19389e-10
-3.77611e-12
-9.1346e-11
-1.48686e-10
1.95296e-11
1.26017e-10
4.02456e-11
8.00711e-11
3.5791e-10
2.07014e-11
1.39447e-09
2.92628e-10
-8.65268e-12
-2.14855e-11
-3.7754e-11
-1.49744e-11
-2.07532e-12
-3.05603e-12
-1.24563e-11
-1.9237e-11
-1.60708e-11
-7.02944e-11
-1.44069e-10