/*--------------------------------*- C++ -*----------------------------------*\
| =========                 |                                                 |
| \\      /  F ield         | OpenFOAM: The Open Source CFD Toolbox           |
|  \\    /   O peration     | Version:  5.0                                   |
|   \\  /    A nd           | Web:      www.OpenFOAM.org                      |
|    \\/     M anipulation  |                                                 |
\*---------------------------------------------------------------------------*/
FoamFile
{
    version     2.0;
    format      ascii;
    class       volScalarField;
    location    "50.4676134421789371";
    object      VVV;
}
// * * * * * * * * * * * * * * * * * * * * * * * * * * * * * * * * * * * * * //

dimensions      [0 3 -3 0 0 0 0];

internalField   nonuniform List<scalar> 
60000
(
-4.80552e-15
-1.04845e-14
-6.8138e-15
-4.44841e-16
2.25682e-18
9.58405e-19
1.29441e-17
6.47895e-18
-3.17193e-21
4.17002e-18
-1.19607e-16
-9.88547e-16
-4.81541e-16
-4.01848e-16
-1.83996e-15
-4.40786e-15
-2.97827e-17
1.63129e-15
1.26457e-14
1.2544e-14
9.34394e-15
5.46185e-16
-2.85235e-16
-1.36544e-16
2.50738e-15
1.96577e-14
1.09832e-14
4.44438e-16
-1.00304e-16
-1.26305e-15
-2.51521e-15
-7.16906e-15
-1.15953e-14
-6.56855e-15
-8.41254e-16
8.81656e-19
-8.35822e-17
-1.05563e-15
-1.24493e-15
-2.16066e-15
-1.07764e-12
-9.0386e-13
-8.82935e-14
8.2153e-15
1.32052e-13
5.88878e-15
-4.32596e-17
-8.46053e-16
9.22519e-19
-1.29048e-14
-2.51787e-13
-4.27383e-13
-4.15238e-14
2.3381e-15
1.39192e-14
2.85753e-14
2.12478e-13
5.12408e-13
6.90181e-14
-4.76315e-14
-4.72932e-13
-3.38194e-13
-1.4458e-14
5.16326e-13
7.31079e-12
1.53704e-11
7.2226e-12
4.16717e-13
-1.34413e-14
-9.92291e-14
-4.31967e-15
-2.07298e-16
-4.79988e-14
-2.80845e-13
-4.07422e-13
-1.66002e-14
2.52541e-14
3.10405e-15
-4.66978e-14
-5.46768e-13
-3.72897e-12
-5.43997e-12
-6.79855e-13
3.18018e-14
1.06326e-12
2.76282e-13
1.77241e-15
-1.27555e-14
2.15451e-15
-7.70465e-15
-6.3727e-13
-2.69888e-12
-1.04931e-12
-3.4567e-17
2.91405e-13
1.96742e-12
6.96209e-12
1.01595e-11
6.35121e-13
-3.72275e-12
-2.95508e-11
-1.79429e-11
-4.24278e-13
7.42054e-12
6.86972e-11
1.1417e-10
4.80319e-11
2.67339e-12
-1.52197e-13
-1.57188e-12
-1.74284e-13
8.17534e-15
1.11295e-15
-1.26016e-13
-1.22888e-12
-6.2149e-13
1.22463e-14
7.18439e-13
9.98266e-14
-2.12282e-13
-8.04276e-12
-1.94227e-11
-2.9187e-12
6.31811e-14
2.76159e-12
1.61777e-12
1.10926e-13
-2.37984e-14
1.45067e-16
6.71252e-17
-8.20625e-13
-8.31464e-12
-6.14308e-12
-5.22609e-14
1.1896e-12
9.18646e-12
2.56469e-11
2.85962e-11
1.38293e-12
-2.23209e-11
-1.81721e-10
-1.10282e-10
-1.60935e-12
3.78288e-11
2.41455e-10
2.8626e-10
7.53379e-11
4.40909e-13
-6.8621e-12
-1.79247e-11
-4.0766e-12
-3.93727e-15
3.01336e-14
-3.60415e-14
-2.20284e-12
-3.00444e-12
-5.18798e-15
2.7073e-12
3.3303e-12
-2.00618e-18
-8.1777e-12
-5.82836e-11
-1.58806e-11
4.01652e-15
4.40847e-12
3.23592e-12
4.90183e-13
-6.27703e-16
2.26396e-19
7.67509e-14
-6.22604e-13
-2.47554e-11
-3.49692e-11
-2.28049e-12
2.0178e-12
2.95579e-11
6.75717e-11
5.22771e-11
2.35179e-12
-5.41363e-11
-5.98675e-10
-4.55085e-10
-8.72509e-12
1.19208e-10
6.86853e-10
6.78334e-10
1.49686e-10
2.35127e-13
-3.0939e-11
-8.267e-11
-2.84226e-11
-9.64643e-13
2.76927e-15
-2.68606e-16
-1.95027e-12
-7.97942e-12
-4.89129e-13
3.28557e-12
1.59131e-11
1.28477e-12
-2.06993e-13
-8.12744e-11
-5.87276e-11
-2.72174e-13
4.6248e-12
4.63682e-12
8.84843e-13
2.20386e-14
2.03838e-15
3.25113e-13
-6.14516e-14
-4.6971e-11
-1.41036e-10
-3.90574e-11
3.50289e-13
7.55748e-11
1.85685e-10
1.06258e-10
5.26016e-12
-6.5581e-11
-1.17868e-09
-1.33681e-09
-4.05956e-11
2.24408e-10
1.56918e-09
1.48415e-09
3.40357e-10
2.94412e-12
-3.18166e-11
-1.62245e-10
-1.07746e-10
-1.4134e-11
-2.50282e-13
-7.49625e-15
-7.50778e-13
-7.26202e-12
-2.74337e-12
1.37564e-12
3.39837e-11
2.35164e-11
3.92091e-12
-2.85051e-11
-9.60807e-11
-5.10242e-12
1.67458e-12
4.01762e-12
7.16477e-13
1.58861e-13
1.11559e-13
5.77494e-13
-1.36424e-16
-5.61737e-11
-3.57661e-10
-2.22692e-10
-2.87181e-13
1.35816e-10
4.60525e-10
2.26067e-10
6.42915e-12
-8.98805e-11
-1.64151e-09
-2.5048e-09
-1.20083e-10
3.06482e-10
2.78038e-09
2.60325e-09
6.01139e-10
1.04825e-11
-1.81249e-11
-1.38204e-10
-1.58454e-10
-6.70648e-11
-1.48819e-11
-3.65358e-12
-2.98954e-12
-5.13379e-12
-2.59332e-12
1.01356e-13
2.449e-11
5.93184e-11
3.43411e-11
-2.32606e-13
-4.10692e-11
-5.66118e-12
5.75896e-13
1.75749e-12
3.29241e-14
1.45161e-14
2.02692e-13
4.1323e-13
-1.99832e-16
-6.29578e-11
-7.11431e-10
-5.85979e-10
-6.08932e-12
2.29978e-10
9.33788e-10
4.95538e-10
1.00706e-11
-1.62449e-10
-2.15576e-09
-3.5112e-09
-2.69522e-10
3.60137e-10
4.33172e-09
4.04247e-09
8.94037e-10
1.72307e-11
-1.13436e-11
-7.87145e-11
-8.25715e-11
-6.01393e-11
-5.4321e-11
-4.89389e-11
-3.16541e-11
-1.43877e-11
-2.40288e-12
2.57177e-15
8.59719e-12
5.15497e-11
4.74342e-11
3.18344e-12
-2.63232e-12
-2.47052e-13
4.3053e-12
4.59487e-12
3.46019e-15
-2.45916e-14
5.63983e-16
4.13697e-16
-2.54854e-13
-8.54825e-11
-1.04057e-09
-8.65876e-10
-6.24843e-12
4.07474e-10
1.67885e-09
1.00572e-09
2.35781e-11
-3.06246e-10
-3.1652e-09
-4.455e-09
-4.01955e-10
4.53175e-10
6.31551e-09
5.49595e-09
1.01122e-09
1.20046e-11
-1.14982e-11
-4.57888e-11
-2.6434e-11
-1.25806e-11
-2.63326e-11
-8.82117e-11
-1.33053e-10
-7.54653e-11
-1.21326e-11
-4.12608e-14
1.68607e-12
1.98796e-11
2.18117e-11
1.33369e-11
2.22164e-13
1.95657e-12
3.39586e-11
2.4526e-11
3.59266e-13
-6.05299e-14
-1.23122e-14
-4.16644e-13
-9.87751e-12
-1.49418e-10
-9.74615e-10
-7.81043e-10
-3.27001e-13
7.63468e-10
2.66916e-09
1.58575e-09
5.00816e-11
-4.2738e-10
-4.79089e-09
-6.0404e-09
-4.95656e-10
6.8945e-10
7.93138e-09
5.89949e-09
7.9895e-10
2.69105e-12
-1.52467e-11
-2.64744e-11
-6.14193e-12
-6.30094e-13
-2.6923e-12
-4.00651e-11
-1.50205e-10
-1.71437e-10
-6.26166e-11
-4.79679e-12
-1.27271e-17
2.29966e-12
7.5925e-13
7.42565e-12
1.2068e-11
5.06164e-11
1.37798e-10
6.41962e-11
1.57642e-12
-4.49453e-14
-1.24122e-17
-4.65222e-13
-4.18615e-11
-3.20283e-10
-8.43728e-10
-4.38894e-10
1.57344e-12
1.2909e-09
3.39204e-09
1.82946e-09
8.27384e-11
-3.33155e-10
-5.63798e-09
-8.2549e-09
-7.11515e-10
8.52217e-10
8.1521e-09
5.01425e-09
4.67448e-10
5.31933e-14
-1.68005e-11
-1.17959e-11
-4.02401e-13
3.73369e-14
-1.0898e-14
-1.25031e-11
-9.58852e-11
-1.63149e-10
-1.04905e-10
-2.74886e-11
-3.61853e-12
-1.03607e-13
-5.03883e-12
2.48656e-14
3.58067e-11
2.17337e-10
3.15492e-10
1.06468e-10
3.69751e-12
-1.82841e-14
-1.09972e-16
-3.10531e-13
-6.20248e-11
-5.24929e-10
-9.41203e-10
-2.39923e-10
1.68375e-11
1.46071e-09
3.2547e-09
1.82682e-09
1.65064e-10
-9.27347e-11
-4.18627e-09
-9.153e-09
-1.21704e-09
5.18145e-10
6.18994e-09
3.52565e-09
2.27214e-10
-4.71794e-14
-1.31184e-11
-2.40633e-12
2.76044e-13
5.59551e-12
5.68101e-13
-4.48542e-12
-7.64175e-11
-1.39984e-10
-8.48714e-11
-2.69199e-11
-1.03434e-11
-1.0236e-11
-6.82672e-11
-1.29251e-11
1.80321e-11
3.31213e-10
4.54424e-10
1.75255e-10
1.46977e-11
1.35489e-14
-3.15189e-14
-1.20471e-12
-8.08925e-11
-6.68321e-10
-1.15255e-09
-2.69135e-10
9.10705e-12
1.0592e-09
2.59475e-09
1.9097e-09
4.37315e-10
-2.14694e-13
-1.78801e-09
-7.45053e-09
-1.81563e-09
1.33482e-10
3.58194e-09
2.00736e-09
9.94436e-11
-3.02551e-13
-6.50473e-12
-1.83675e-14
1.08528e-11
4.2469e-11
1.08662e-11
-1.25359e-12
-7.32346e-11
-1.45377e-10
-6.55126e-11
-8.63853e-12
-2.35571e-12
-1.83559e-11
-1.03319e-10
-7.4684e-11
4.22515e-13
1.79497e-10
3.54388e-10
1.94181e-10
4.20824e-11
3.41762e-12
4.13323e-13
-1.01867e-14
-6.88245e-11
-9.4562e-10
-1.89286e-09
-5.93912e-10
8.00766e-14
6.30948e-10
1.9013e-09
2.01655e-09
9.27761e-10
2.48723e-11
-3.93535e-10
-3.37546e-09
-1.40284e-09
5.12565e-12
1.07791e-09
6.89375e-10
4.28841e-11
-1.52442e-14
-8.20787e-13
5.85628e-13
4.40489e-11
1.20087e-10
3.95275e-11
-1.6165e-13
-7.34426e-11
-1.49268e-10
-5.13198e-11
-1.76537e-12
-4.39029e-15
-7.05909e-12
-5.92382e-11
-8.10297e-11
-2.27465e-13
4.29867e-11
1.29709e-10
1.01944e-10
3.94202e-11
1.36199e-11
1.26121e-11
9.23018e-12
-5.12344e-12
-9.01434e-10
-3.58347e-09
-1.91267e-09
-2.57714e-11
2.68336e-10
1.94931e-09
3.13193e-09
1.42161e-09
2.85827e-11
-2.33641e-10
-1.6576e-09
-7.98473e-10
-6.05621e-13
1.63307e-10
2.3169e-10
5.44819e-11
2.66483e-12
2.69411e-13
5.95584e-12
5.39693e-11
1.16665e-10
4.59758e-11
-6.89263e-14
-1.05679e-10
-2.2092e-10
-5.76615e-11
-7.84489e-14
1.53767e-12
-2.58723e-13
-2.12957e-11
-8.40737e-11
-7.31345e-12
9.85156e-12
1.07903e-10
1.18965e-10
3.36119e-11
3.25152e-12
1.95055e-12
1.02513e-11
6.21994e-14
-4.15292e-10
-4.18006e-09
-4.05586e-09
-1.79374e-10
3.83944e-10
4.05409e-09
4.89042e-09
1.22173e-09
3.76237e-13
-5.84299e-10
-1.80769e-09
-7.6289e-10
-6.86128e-12
8.21501e-11
3.08454e-10
2.07662e-10
4.13048e-11
6.83221e-12
9.70657e-12
2.90471e-11
3.94239e-11
1.16351e-11
-8.59396e-13
-1.60366e-10
-4.58865e-10
-1.64974e-10
-3.73568e-13
1.24759e-11
1.13227e-12
-1.24315e-12
-4.32009e-11
-9.42118e-12
6.14865e-12
1.26599e-10
1.4003e-10
2.04604e-11
-2.61432e-14
-2.87419e-12
-1.14973e-14
-4.12763e-16
-1.64186e-10
-2.65797e-09
-3.58514e-09
-1.25562e-10
7.74085e-10
5.04127e-09
3.94651e-09
5.02205e-10
-4.55877e-12
-8.53739e-10
-1.85087e-09
-6.96737e-10
-1.6638e-12
2.23324e-10
7.90103e-10
4.41019e-10
6.13641e-11
4.42783e-12
1.29734e-11
6.87886e-11
5.46344e-11
1.23914e-12
-1.24764e-11
-2.18322e-10
-7.42367e-10
-5.52725e-10
-3.44277e-11
3.64852e-12
9.1456e-12
1.23327e-14
-1.17519e-12
-5.84232e-14
7.08204e-12
7.00537e-11
8.80377e-11
4.84006e-12
-1.62551e-11
-1.07747e-10
-5.64273e-11
-1.78446e-11
-1.23569e-10
-9.58538e-10
-9.10184e-10
-4.37894e-13
1.01242e-09
2.98277e-09
1.30398e-09
4.77485e-11
-7.52788e-11
-9.06646e-10
-1.21246e-09
-2.4236e-10
2.05957e-12
3.42935e-10
3.94672e-10
3.79901e-11
1.09492e-13
1.04613e-11
2.80268e-10
7.65196e-10
3.70781e-10
2.40773e-12
-6.39913e-11
-2.93086e-10
-5.37572e-10
-5.92803e-10
-1.73194e-10
-1.80801e-12
1.10279e-12
-4.20366e-13
-1.19363e-13
-2.03483e-14
1.78693e-12
1.09847e-10
4.4868e-10
1.3505e-10
-1.07998e-11
-5.93904e-10
-7.35076e-10
-2.336e-10
-8.77343e-11
-1.25348e-10
-5.18513e-11
3.25959e-12
3.30386e-10
7.36552e-10
4.17515e-10
3.0364e-11
-1.95309e-11
-3.98218e-10
-5.30155e-10
-5.75599e-11
1.13191e-11
1.46634e-10
5.66135e-11
4.52966e-12
1.44297e-11
2.2367e-10
7.75045e-10
9.28143e-10
3.5408e-10
3.85961e-12
-7.66861e-11
-3.26891e-10
-3.25261e-10
-2.81176e-10
-2.0404e-10
-6.27893e-11
-6.56356e-12
-4.80014e-11
-5.95997e-11
-6.20904e-12
2.99516e-11
7.48082e-10
1.80201e-09
6.86522e-10
-6.03177e-13
-1.44284e-09
-3.87531e-09
-2.15435e-09
-3.73553e-10
-1.59488e-11
4.28281e-14
1.27689e-11
6.2866e-11
1.46478e-10
1.87847e-10
7.42168e-11
3.81165e-14
-7.14585e-11
-1.99822e-10
-4.47118e-11
8.51493e-14
2.35155e-11
2.54117e-11
1.72985e-11
4.43954e-11
1.84162e-10
5.08853e-10
6.31634e-10
2.24712e-10
1.28394e-12
-5.90184e-11
-2.01816e-10
-1.26984e-10
-5.3638e-11
-3.24133e-11
-2.34935e-11
-2.34918e-11
-1.14456e-11
-1.70014e-10
-1.17739e-10
2.53916e-12
9.1127e-10
2.69991e-09
1.12883e-09
6.75391e-16
-1.78948e-09
-7.67919e-09
-6.29852e-09
-1.25802e-09
-2.08733e-11
6.68096e-12
4.04337e-11
6.99272e-11
1.5558e-10
3.53306e-10
4.08552e-10
1.11529e-10
-1.84977e-14
-1.17392e-10
-2.36548e-10
-6.02746e-11
-8.95084e-14
8.23218e-12
3.29842e-11
7.44789e-11
1.92593e-10
4.05801e-10
4.52235e-10
1.04951e-10
-4.87624e-12
-3.915e-10
-4.37286e-10
-7.55775e-11
-3.50245e-12
-8.01003e-14
7.19054e-14
6.22405e-14
3.74313e-12
-2.54883e-11
-4.61142e-11
1.1805e-12
3.83518e-10
1.04572e-09
3.70485e-10
-2.05265e-12
-1.74492e-09
-7.2519e-09
-6.22815e-09
-1.01421e-09
-2.12032e-13
5.4922e-11
3.48713e-11
8.44431e-12
2.39315e-11
1.19974e-10
1.76587e-10
3.8629e-11
-1.34111e-12
-1.51547e-10
-2.80915e-10
-5.27582e-11
2.52229e-12
2.07115e-10
4.91124e-10
3.80172e-10
2.01888e-10
1.60571e-10
1.92631e-10
7.7953e-11
-9.52949e-12
-1.32477e-09
-2.81357e-09
-7.37976e-10
-1.65354e-12
8.88039e-11
3.08533e-10
1.74791e-10
9.10513e-11
4.40655e-13
-9.9251e-13
1.87534e-12
2.11408e-10
7.67765e-10
4.15159e-10
6.22951e-13
-4.42928e-10
-2.75041e-09
-3.29658e-09
-9.16562e-10
-3.49474e-11
-3.99892e-13
-1.037e-11
-5.84199e-11
-3.22308e-11
-2.81913e-13
4.11448e-12
9.79439e-12
8.56593e-13
-2.74024e-13
-5.25891e-13
1.50124e-12
7.16444e-11
2.87561e-10
4.6759e-10
4.71046e-10
2.87849e-10
1.05251e-10
3.12009e-11
5.78215e-12
-2.69182e-12
-3.62531e-10
-1.67385e-09
-1.40015e-09
-1.59413e-10
2.8744e-12
2.13582e-10
3.28585e-10
-1.02695e-12
-1.14986e-11
-6.56167e-14
5.93918e-11
5.49294e-10
8.59237e-10
2.31886e-10
-1.19405e-12
-6.28262e-10
-1.91698e-09
-1.48509e-09
-3.96071e-10
-4.76332e-11
-2.43549e-11
-1.06733e-10
-2.46403e-10
-1.57249e-10
-1.66771e-11
1.24712e-13
1.98144e-11
6.60782e-11
1.16775e-10
1.67333e-10
2.05135e-10
2.36979e-10
2.7074e-10
2.92248e-10
2.56383e-10
1.34382e-10
2.18626e-11
4.11461e-18
-1.53556e-11
-1.18419e-10
-3.5221e-10
-4.11961e-10
-1.17751e-10
-8.54345e-14
3.47623e-11
6.56727e-11
7.28054e-12
-7.88641e-12
-1.38163e-11
-2.69365e-14
2.46552e-11
1.55805e-10
1.93317e-10
4.5616e-11
-1.00106e-12
-2.67688e-10
-9.87613e-10
-9.10836e-10
-2.75475e-10
-2.75879e-11
-2.2871e-12
-7.34037e-12
-5.17504e-11
-1.12027e-10
-6.74662e-11
-3.0291e-12
1.42098e-11
2.58426e-10
6.96593e-10
6.64559e-10
2.47625e-10
3.91568e-11
1.12017e-11
4.53275e-11
2.16305e-10
3.20486e-10
7.32863e-11
-3.53274e-12
-4.17469e-10
-1.07055e-09
-6.51907e-10
-7.98707e-11
2.70633e-13
8.81789e-11
1.86613e-10
6.5624e-11
3.65356e-13
8.55782e-19
-9.7467e-16
-6.06221e-15
-2.44136e-15
-4.40312e-16
-1.61696e-17
1.61368e-16
3.80833e-15
8.47899e-15
4.37466e-15
1.22552e-15
2.75179e-16
2.34603e-16
2.11534e-17
-1.11512e-17
-2.41275e-17
-1.18803e-18
-4.59423e-19
-2.22896e-18
1.81471e-18
4.84779e-16
6.61429e-16
7.47445e-18
-3.70468e-15
-8.10822e-15
-7.13074e-15
-5.62785e-15
-7.77883e-15
-5.04913e-15
-8.4828e-16
-8.96265e-19
3.38146e-17
1.10364e-16
8.07836e-18
4.40622e-16
5.47708e-15
1.01905e-15
5.95809e-18
1.12158e-17
1.42303e-16
-1.00054e-13
-1.54899e-13
-5.52068e-14
7.01638e-16
1.10067e-13
2.321e-13
1.31581e-13
8.36913e-14
2.34341e-14
3.64681e-15
1.89319e-15
5.37016e-14
3.7918e-13
8.91187e-13
1.59264e-12
3.19999e-12
4.92106e-12
4.27478e-12
1.43924e-12
3.10716e-14
-1.73398e-14
-1.58401e-14
-1.85299e-16
-4.5614e-15
1.53356e-16
8.8842e-15
-4.51717e-17
-4.45861e-14
-8.21524e-15
6.77327e-14
8.89361e-13
1.06716e-12
3.52899e-13
1.99756e-15
-1.71123e-14
1.04057e-15
3.29876e-13
2.86057e-14
-2.2786e-14
-5.12197e-14
-2.24802e-12
-2.2991e-12
-3.57066e-13
7.78065e-14
2.79066e-12
6.03051e-12
2.47692e-12
2.47761e-13
-2.13359e-14
-2.59196e-13
-2.47959e-13
1.53728e-15
1.28563e-12
6.89856e-12
1.83338e-11
3.89503e-11
5.75788e-11
5.16205e-11
1.91591e-11
2.62708e-13
-2.6225e-12
-7.35618e-12
-1.13866e-12
-2.09789e-15
8.59703e-13
2.67972e-12
4.08726e-13
-3.57497e-15
-8.65642e-15
3.67612e-13
5.96256e-12
9.81124e-12
4.12596e-12
1.75669e-13
-2.31776e-13
-9.49286e-13
-1.34883e-15
3.11535e-14
-8.29278e-14
-7.96119e-13
-1.15286e-11
-1.32668e-11
-1.56708e-12
4.60672e-13
1.11435e-11
2.42529e-11
1.05887e-11
3.30029e-13
-1.02691e-12
-5.7269e-12
-3.69712e-12
-4.5292e-14
1.89848e-12
1.77727e-11
4.98095e-11
9.07713e-11
1.13852e-10
9.26287e-11
2.81925e-11
-6.0978e-16
-4.22605e-11
-9.72362e-11
-2.07258e-11
-2.10021e-14
7.23639e-12
1.46898e-11
1.56622e-12
-6.37376e-14
-2.59379e-13
1.42848e-13
7.83832e-12
1.54243e-11
5.05094e-12
1.32095e-14
-3.26388e-12
-1.13418e-11
-2.09941e-12
1.38784e-14
3.52327e-17
-1.31572e-12
-2.67754e-11
-5.39872e-11
-7.84842e-12
1.29183e-12
3.10017e-11
6.37392e-11
3.59736e-11
1.29364e-12
-4.32628e-12
-3.52158e-11
-1.98844e-11
-1.53061e-12
1.22661e-12
3.46122e-11
1.14235e-10
1.91442e-10
2.07081e-10
1.67957e-10
5.39579e-11
-7.64188e-14
-1.84914e-10
-4.96037e-10
-1.49291e-10
-3.86215e-13
3.42824e-11
6.49831e-11
7.21205e-12
-2.21199e-13
-2.21386e-12
8.63025e-17
6.91252e-12
1.76213e-11
5.05892e-12
-6.96099e-16
-1.07774e-11
-4.10068e-11
-1.73232e-11
-5.02776e-15
7.41646e-13
-8.37616e-14
-2.58752e-11
-1.6549e-10
-4.58696e-11
8.50818e-13
6.45442e-11
1.23199e-10
7.97583e-11
6.78466e-12
-5.1465e-12
-1.04406e-10
-9.85374e-11
-1.85587e-11
1.67594e-14
4.30847e-11
2.27944e-10
3.94532e-10
4.00408e-10
3.59336e-10
1.57993e-10
2.82964e-14
-3.72763e-10
-1.51729e-09
-6.86836e-10
-5.36404e-12
1.00675e-10
2.41424e-10
4.40902e-11
-1.93724e-15
-5.42994e-12
-4.07033e-13
2.4131e-12
1.24778e-11
2.93456e-12
-1.09322e-13
-2.0299e-11
-9.04189e-11
-6.02088e-11
-9.41531e-13
4.92602e-12
1.18418e-12
-2.43154e-12
-2.67033e-10
-1.60533e-10
1.93102e-14
1.01198e-10
1.9567e-10
1.12897e-10
1.1288e-11
-3.38716e-12
-1.39585e-10
-2.9199e-10
-1.08741e-10
-9.62968e-13
3.87442e-11
3.60409e-10
6.77437e-10
6.82384e-10
6.54102e-10
3.53535e-10
1.1872e-12
-6.21404e-10
-3.44947e-09
-2.03723e-09
-2.90345e-11
2.02676e-10
6.47976e-10
1.79543e-10
1.21916e-12
-2.78107e-12
-8.86863e-13
5.13994e-13
3.35414e-12
7.89152e-15
-7.05314e-12
-5.36963e-11
-1.50227e-10
-1.46793e-10
-1.50682e-11
4.0506e-12
2.10568e-11
1.1402e-12
-1.73229e-10
-2.91266e-10
-1.70733e-13
1.52062e-10
2.96777e-10
1.17115e-10
5.15496e-12
-5.45297e-12
-1.1893e-10
-4.38692e-10
-3.50803e-10
-1.92939e-11
3.06782e-11
5.06205e-10
1.02691e-09
1.15924e-09
1.212e-09
6.84586e-10
4.39708e-12
-1.00517e-09
-6.44198e-09
-4.42955e-09
-9.66305e-11
3.32981e-10
1.38381e-09
4.99896e-10
1.79674e-11
-8.57554e-14
-2.89383e-14
2.0569e-12
4.17584e-12
-1.0732e-13
-4.58271e-11
-1.80968e-10
-2.67896e-10
-2.39512e-10
-6.54679e-11
4.95713e-14
4.31956e-11
1.59075e-11
-3.60834e-11
-2.44949e-10
-6.4084e-13
2.29355e-10
5.40755e-10
1.58562e-10
2.25004e-13
-3.14632e-11
-1.45351e-10
-4.27695e-10
-5.09618e-10
-7.29445e-11
1.88178e-11
6.12574e-10
1.42221e-09
1.83224e-09
2.09771e-09
1.15711e-09
5.86439e-12
-1.65045e-09
-1.05174e-08
-7.5966e-09
-2.03259e-10
5.33843e-10
2.40702e-09
9.97345e-10
6.82498e-11
1.89835e-13
8.27663e-14
7.3838e-12
1.18654e-11
-1.94099e-16
-6.19612e-11
-3.40997e-10
-4.88421e-10
-3.60879e-10
-1.30458e-10
-2.45833e-12
2.24051e-11
8.9077e-12
-2.38341e-12
-7.4881e-11
9.88027e-14
4.78376e-10
1.07043e-09
2.60399e-10
-9.27646e-15
-1.54498e-10
-3.28253e-10
-4.14666e-10
-4.42508e-10
-7.1118e-11
1.6965e-11
6.49574e-10
1.62317e-09
2.52949e-09
3.22861e-09
1.57402e-09
2.63376e-12
-2.54522e-09
-1.51254e-08
-1.07449e-08
-2.73102e-10
8.25022e-10
3.44298e-09
1.50687e-09
1.36056e-10
1.81652e-12
7.93754e-13
1.54026e-11
2.32307e-11
4.10104e-14
-5.28825e-11
-3.58353e-10
-5.88612e-10
-4.48591e-10
-1.7861e-10
-2.11276e-11
7.22559e-13
-2.53119e-14
-1.08835e-12
-1.17207e-12
7.21065e-11
1.28895e-09
1.75736e-09
3.7886e-10
1.07208e-17
-2.60107e-10
-8.0206e-10
-7.55858e-10
-4.32334e-10
-5.15895e-11
1.67576e-11
5.31591e-10
1.73707e-09
3.63696e-09
4.62494e-09
1.65336e-09
1.6745e-15
-3.45688e-09
-1.82309e-08
-1.27867e-08
-2.84893e-10
1.05813e-09
3.86641e-09
1.58784e-09
1.37789e-10
2.61013e-12
3.56992e-12
3.85861e-11
4.92222e-11
2.90908e-13
-6.31241e-11
-3.99288e-10
-5.545e-10
-3.69432e-10
-1.49201e-10
-3.93713e-11
-3.08115e-12
-6.77781e-11
-2.31127e-11
8.58581e-12
7.13132e-10
2.51541e-09
1.95851e-09
3.80564e-10
1.58796e-12
-8.58526e-11
-7.19643e-10
-1.48807e-09
-1.03526e-09
-1.26464e-10
8.64376e-12
4.89331e-10
2.18432e-09
5.22001e-09
5.59861e-09
1.34472e-09
-3.04883e-12
-4.00737e-09
-1.81137e-08
-1.28929e-08
-3.02224e-10
1.01772e-09
3.61892e-09
1.3412e-09
1.08951e-10
4.38174e-12
1.16491e-11
8.29077e-11
1.05174e-10
3.03743e-12
-6.97867e-11
-5.44284e-10
-6.48987e-10
-2.80765e-10
-6.23405e-11
-1.91257e-11
-3.40873e-11
-3.76424e-10
-1.92983e-10
3.47414e-11
1.79866e-09
3.22763e-09
1.55707e-09
2.37017e-10
7.13329e-12
-2.30122e-12
-2.06795e-10
-1.69015e-09
-2.67821e-09
-6.24119e-10
4.62344e-13
5.87538e-10
2.83036e-09
5.96218e-09
4.92903e-09
8.93198e-10
-9.07674e-12
-3.487e-09
-1.50201e-08
-1.06516e-08
-2.18292e-10
9.65223e-10
2.95671e-09
9.41289e-10
7.35229e-11
5.77235e-12
1.97423e-11
1.22857e-10
1.93341e-10
2.26205e-11
-3.26348e-11
-6.0372e-10
-8.82966e-10
-3.31876e-10
-2.91368e-11
-1.5216e-12
-3.86815e-11
-3.79005e-10
-2.79795e-10
2.51518e-11
1.94155e-09
2.93839e-09
9.41567e-10
7.91313e-11
4.17128e-12
7.89449e-13
-8.74248e-12
-9.79665e-10
-4.44028e-09
-2.19242e-09
-4.81081e-12
6.26403e-10
3.13308e-09
4.88501e-09
3.08844e-09
5.57861e-10
-1.88011e-12
-1.88313e-09
-9.00866e-09
-6.33117e-09
-9.63523e-11
6.25448e-10
1.5356e-09
4.99509e-10
7.54511e-11
1.89033e-11
2.9096e-11
9.91216e-11
1.86132e-10
5.92503e-11
-3.48714e-12
-4.11764e-10
-9.10478e-10
-4.29068e-10
-4.48159e-11
-7.99697e-13
-1.83785e-11
-1.66858e-10
-6.08469e-11
9.8019e-11
1.95782e-09
2.0162e-09
3.72933e-10
5.63925e-12
-6.11809e-15
5.17302e-13
-3.96951e-17
-3.34305e-10
-4.15328e-09
-4.14576e-09
-9.70191e-11
4.56496e-10
2.39573e-09
2.61942e-09
1.55471e-09
4.11737e-10
2.26173e-14
-7.36312e-10
-4.26648e-09
-3.22071e-09
-1.11696e-10
1.0151e-10
5.85612e-10
5.72337e-10
3.25473e-10
1.31754e-10
4.44327e-11
2.19949e-11
2.99431e-11
2.36114e-11
-6.47355e-14
-1.86465e-10
-7.15276e-10
-4.42754e-10
-6.33881e-11
-4.10923e-12
-1.80292e-11
-9.7092e-11
-6.07135e-12
1.79968e-10
1.4703e-09
1.34833e-09
2.57163e-10
1.55378e-12
-2.93077e-12
-6.48276e-13
-6.19019e-13
-2.18109e-10
-3.12756e-09
-4.56901e-09
-3.25092e-10
1.54683e-10
1.23768e-09
1.3933e-09
1.16849e-09
4.60874e-10
2.59836e-12
-3.58495e-10
-2.27309e-09
-1.82019e-09
-1.00445e-10
5.59077e-11
7.73485e-10
1.37579e-09
9.98769e-10
3.47761e-10
5.04342e-11
3.47661e-13
-1.04844e-12
-1.33095e-12
-3.57565e-12
-8.68888e-11
-4.47257e-10
-4.2191e-10
-8.26795e-11
-9.72589e-12
-2.78828e-11
-6.29203e-11
-3.28951e-12
9.47579e-11
9.39535e-10
1.21409e-09
3.79967e-10
1.12728e-11
-2.85531e-12
-1.46444e-11
-2.2541e-11
-2.70074e-10
-2.25424e-09
-3.72296e-09
-5.30383e-10
3.00955e-11
7.54381e-10
1.15476e-09
1.09606e-09
4.71307e-10
7.9434e-12
-2.03656e-10
-1.48149e-09
-1.07519e-09
-1.65284e-11
2.77352e-10
1.87861e-09
2.09422e-09
8.39008e-10
2.00358e-10
6.77333e-11
1.30791e-11
-3.24959e-12
-1.42099e-10
-1.90833e-10
-1.5129e-10
-2.70493e-10
-3.82599e-10
-1.65607e-10
-3.13857e-11
-3.26028e-11
-4.61845e-11
-1.8853e-13
1.1281e-10
7.54585e-10
8.90105e-10
3.36222e-10
2.1522e-11
-2.22602e-12
-6.87559e-11
-2.13919e-10
-6.16022e-10
-1.67657e-09
-1.85234e-09
-2.458e-10
2.30317e-11
5.91094e-10
8.71539e-10
6.04071e-10
1.77845e-10
1.77863e-12
-5.37295e-11
-3.70319e-10
-1.88749e-10
1.68296e-12
6.93863e-10
1.47401e-09
4.24556e-10
2.22316e-11
1.68917e-11
2.74168e-10
5.89129e-10
2.4099e-11
-2.92008e-10
-1.45399e-09
-7.71053e-10
-2.07612e-10
-1.22992e-10
-1.10198e-10
-7.48981e-11
-6.53303e-11
-1.6991e-11
-2.65197e-14
3.71072e-11
2.91983e-10
6.83452e-10
7.34343e-10
1.78218e-10
-4.41397e-13
-3.39268e-10
-1.1442e-09
-1.47945e-09
-1.22881e-09
-4.35288e-10
-3.95472e-12
1.05698e-10
4.62307e-10
3.57498e-10
1.20071e-10
1.58092e-11
-7.34568e-17
-1.05956e-11
-2.12891e-11
-1.16914e-13
5.73348e-11
2.96252e-10
1.39259e-10
1.061e-11
1.09001e-11
2.4432e-10
1.11219e-09
1.01347e-09
4.8084e-11
-3.2538e-10
-2.9418e-09
-2.52931e-09
-4.9934e-10
-4.44374e-11
-8.12495e-12
-1.35714e-11
-2.51883e-11
-2.85149e-11
-5.97524e-11
-1.82933e-12
8.41877e-11
1.14275e-09
2.36655e-09
1.09757e-09
5.15194e-12
-7.57633e-10
-4.763e-09
-5.08355e-09
-1.33465e-09
-1.42001e-11
9.16756e-11
3.91936e-10
2.35607e-10
4.17912e-11
4.05163e-12
5.27862e-13
-1.0461e-15
-1.9231e-12
-2.65484e-12
1.10528e-15
1.20962e-11
5.47322e-11
9.61079e-11
1.83399e-10
3.74414e-10
7.41678e-10
9.41031e-10
3.99777e-10
9.67174e-13
-3.92849e-10
-2.41675e-09
-2.56683e-09
-5.45976e-10
-2.1282e-12
1.88744e-11
2.07027e-11
3.05675e-17
-7.28508e-12
-1.15131e-10
-6.69613e-11
1.32264e-12
4.83563e-10
1.75738e-09
1.34032e-09
7.59633e-11
-3.03657e-10
-5.47067e-09
-1.01196e-08
-3.58811e-09
-4.9377e-11
1.61404e-10
6.01578e-10
3.38378e-10
9.53706e-11
2.39315e-11
3.33514e-12
-1.58948e-13
-2.70293e-11
-8.23604e-11
-3.78061e-11
-6.31707e-14
2.57346e-11
1.58254e-10
3.17195e-10
5.04923e-10
7.91691e-10
9.23177e-10
3.54158e-10
-1.20666e-13
-8.68241e-10
-2.55634e-09
-1.19307e-09
-6.01381e-11
1.07384e-11
1.46634e-10
1.25174e-10
9.50455e-12
-8.07241e-15
-6.31489e-11
-1.0173e-10
-2.37908e-12
6.91913e-11
5.84818e-10
6.73442e-10
6.3455e-11
-1.72558e-10
-4.3727e-09
-1.01108e-08
-4.76084e-09
-1.24481e-10
1.50663e-10
6.33161e-10
2.44951e-10
2.2365e-11
5.37296e-13
-5.12311e-16
-2.13287e-12
-3.44372e-11
-1.01887e-10
-4.36172e-11
4.19916e-13
2.54504e-10
1.18921e-09
1.67655e-09
1.23403e-09
7.3351e-10
4.22743e-10
9.89851e-11
-1.06018e-11
-1.69581e-09
-5.35971e-09
-2.39231e-09
-3.69902e-11
1.39041e-10
6.62315e-10
4.96292e-10
8.2106e-11
3.97494e-11
-2.51099e-15
-6.4512e-12
-1.5582e-13
2.47124e-11
1.97098e-10
2.13475e-10
1.95744e-11
-4.68005e-11
-1.51065e-09
-4.90338e-09
-3.54402e-09
-4.33346e-10
-1.86353e-13
2.42855e-12
-5.66194e-15
-2.78189e-12
-7.01857e-13
1.40654e-13
3.47463e-12
3.37586e-12
1.5653e-12
6.27867e-12
5.64745e-11
1.89079e-10
2.47262e-10
2.19106e-10
2.65368e-10
3.7336e-10
3.5108e-10
9.34716e-11
-1.01818e-12
-5.95066e-10
-2.68668e-09
-2.28237e-09
-2.38199e-10
9.16129e-12
4.01549e-10
6.46129e-10
3.2472e-10
1.42018e-11
1.38296e-12
6.33689e-12
5.26436e-11
1.21903e-10
7.21957e-11
1.88138e-12
-2.71654e-11
-3.73915e-10
-1.02348e-09
-1.30035e-09
-7.67716e-10
-1.67731e-10
-1.57615e-11
-4.70123e-12
-5.63382e-12
-1.0976e-12
2.96883e-13
1.42498e-11
5.33304e-11
9.75482e-11
1.18753e-10
9.44803e-11
5.23422e-11
3.18417e-11
4.73699e-11
1.34859e-10
3.01736e-10
3.55108e-10
1.43641e-10
1.10869e-12
-9.3731e-11
-9.1162e-10
-1.7804e-09
-1.07684e-09
-9.84638e-11
6.47544e-12
2.28879e-10
3.22702e-10
1.23614e-10
3.42662e-11
1.86787e-13
-2.01576e-14
4.37976e-14
2.19306e-12
2.81607e-12
-8.95188e-17
-2.49723e-11
-2.17034e-10
-4.54754e-10
-3.67342e-10
-1.22794e-10
-1.19218e-11
-2.4398e-14
1.02447e-13
1.03891e-15
-2.66903e-13
-4.50333e-13
1.26848e-13
2.89875e-11
1.74139e-10
2.37396e-10
7.45028e-11
8.83717e-13
-2.04788e-12
-7.08437e-13
1.04843e-11
2.41867e-10
5.22952e-10
1.73057e-10
-2.32281e-14
-2.52457e-10
-8.99119e-10
-8.94163e-10
-3.04472e-10
-5.20833e-12
5.74754e-11
5.00133e-10
7.05782e-10
3.11834e-10
-4.35507e-19
-4.34363e-15
-1.29759e-15
1.69587e-17
1.00665e-15
4.41148e-16
1.07078e-16
-2.4673e-18
-9.70164e-18
2.20007e-16
1.02075e-15
3.74122e-16
2.07051e-18
-1.69063e-16
4.22456e-19
6.33602e-18
3.63131e-18
1.824e-17
6.49737e-16
9.71114e-16
-5.19201e-22
-3.73032e-17
-1.25641e-16
-3.96115e-15
-1.65449e-14
-2.10382e-14
-1.28157e-14
-6.19596e-15
-1.04335e-15
9.53035e-23
1.16847e-15
3.00419e-15
1.80373e-15
2.80802e-16
3.97192e-17
9.46181e-17
1.14179e-17
2.93439e-16
1.26703e-14
1.40203e-14
-9.74759e-13
-1.27534e-12
-3.00473e-14
4.04652e-14
1.01954e-13
2.41289e-14
1.46018e-15
-2.94877e-15
-1.78226e-14
-1.41455e-19
3.51991e-14
1.06601e-13
1.0554e-13
9.79988e-14
4.41193e-13
1.08307e-12
1.72678e-12
2.51701e-12
3.43725e-12
1.09412e-12
-1.80682e-14
-6.26891e-13
-1.50736e-13
-2.85992e-13
-1.14918e-12
-1.52549e-12
-7.22104e-13
-8.44827e-14
8.3787e-15
4.89762e-13
1.28544e-12
9.09669e-13
1.99137e-13
4.84183e-15
-2.08325e-17
1.61839e-14
3.35326e-13
4.36929e-13
1.43377e-13
-2.8126e-15
-1.278e-11
-1.75007e-11
-9.68092e-13
5.30514e-14
2.73921e-13
5.9194e-14
1.74297e-15
-1.34536e-14
-1.63515e-13
-8.13385e-14
-2.52058e-18
1.18217e-13
6.49086e-13
1.96815e-12
6.1655e-12
1.25961e-11
1.66937e-11
2.05092e-11
2.74853e-11
1.19502e-11
-1.66348e-14
-1.0892e-11
-6.82288e-12
-1.19285e-12
-1.73773e-12
-2.56528e-12
-1.50903e-12
-1.76623e-13
1.03028e-13
3.80479e-12
1.0143e-11
7.52315e-12
1.56681e-12
1.35779e-14
-8.32836e-14
-7.83912e-14
5.63891e-14
1.51502e-12
5.32699e-13
-6.69126e-13
-5.63738e-11
-7.60849e-11
-4.59107e-12
2.74988e-13
1.60716e-12
5.78614e-13
8.17583e-14
3.34729e-18
-1.31684e-13
-2.32772e-13
-3.26035e-14
1.46594e-13
2.30745e-12
7.9714e-12
2.0201e-11
3.17552e-11
3.28077e-11
3.24893e-11
4.08187e-11
1.65651e-11
-5.32237e-13
-6.2749e-11
-5.25845e-11
-3.50344e-12
-1.03875e-12
-1.72543e-12
-1.2909e-12
-8.92207e-14
6.01767e-13
1.09207e-11
2.55755e-11
1.56911e-11
1.64292e-12
-2.14313e-14
-2.21344e-12
-2.95576e-12
-4.14308e-14
2.1798e-12
3.95963e-12
-1.58891e-12
-1.53255e-10
-2.2858e-10
-1.86384e-11
7.41793e-13
6.23334e-12
3.20093e-12
8.37217e-13
1.28884e-13
-4.52392e-15
-2.73612e-13
-3.73388e-13
3.80927e-14
5.52323e-12
2.45306e-11
5.32244e-11
7.09548e-11
6.14507e-11
5.56627e-11
6.96918e-11
2.82336e-11
-1.57542e-12
-2.10579e-10
-2.25141e-10
-1.69251e-11
-5.4365e-13
-5.1126e-13
-1.01209e-12
-1.11552e-13
1.12545e-12
2.12232e-11
4.97713e-11
3.0767e-11
2.68169e-12
-2.6327e-13
-9.12233e-12
-1.37185e-11
-1.93578e-12
1.39864e-12
1.61939e-11
-1.31889e-13
-2.19895e-10
-6.09424e-10
-8.7214e-11
1.94829e-13
1.12943e-11
7.45122e-12
2.35477e-12
8.00364e-13
5.82512e-14
-1.18333e-13
-1.45159e-12
-4.9676e-15
7.31937e-12
5.21579e-11
1.14482e-10
1.46057e-10
1.15518e-10
1.11331e-10
1.57667e-10
7.54858e-11
-6.18829e-13
-4.39316e-10
-7.36745e-10
-1.10095e-10
-1.20361e-12
-4.36719e-15
-3.34527e-13
-2.30739e-13
7.66755e-13
2.62701e-11
7.49741e-11
5.1495e-11
5.00078e-12
-5.07172e-13
-2.07313e-11
-3.89194e-11
-1.18149e-11
2.20402e-13
3.70229e-11
1.77524e-12
-1.15947e-10
-1.14511e-09
-2.72551e-10
-1.06919e-14
1.62477e-11
1.59205e-11
4.94888e-12
2.13933e-12
1.22007e-12
1.46424e-17
-1.52189e-12
-1.58345e-13
7.53974e-12
7.79534e-11
1.78599e-10
2.05714e-10
1.60201e-10
2.02581e-10
3.44987e-10
1.80735e-10
-1.94217e-13
-7.33769e-10
-1.88617e-09
-5.0416e-10
-6.94654e-12
3.5823e-13
4.01773e-14
-2.06416e-15
8.67639e-13
2.9568e-11
8.1551e-11
5.231e-11
2.65791e-12
-3.40133e-12
-4.72013e-11
-8.56057e-11
-4.35826e-11
-2.52192e-13
3.40382e-11
3.41497e-11
-1.25211e-11
-1.1838e-09
-5.34228e-10
-2.79013e-12
1.32397e-11
2.22706e-11
8.47631e-12
2.35044e-12
2.72276e-12
7.98968e-13
-3.79992e-14
-3.0202e-14
7.46611e-12
7.99491e-11
1.62813e-10
1.63985e-10
1.59197e-10
3.55945e-10
7.92542e-10
4.1455e-10
-1.61671e-13
-1.1901e-09
-3.69402e-09
-1.3935e-09
-3.41627e-11
3.12344e-12
7.42761e-12
1.8113e-12
5.26741e-12
4.68247e-11
1.02272e-10
5.45499e-11
5.45074e-13
-2.43678e-11
-1.55077e-10
-1.98615e-10
-1.06945e-10
-9.99896e-12
7.71982e-12
6.96959e-11
-1.50645e-20
-5.87679e-10
-6.32441e-10
-1.28174e-11
8.38386e-12
2.01017e-11
6.52059e-12
4.19616e-13
6.81564e-13
6.07966e-12
6.27402e-12
2.39831e-12
1.79596e-11
6.48835e-11
6.93688e-11
4.54699e-11
9.61062e-11
5.85556e-10
1.66259e-09
7.92548e-10
-8.72351e-13
-1.99901e-09
-5.84186e-09
-2.57132e-09
-9.18135e-11
9.79458e-12
5.71089e-11
3.3494e-11
3.64445e-11
9.25512e-11
1.68311e-10
8.60228e-11
4.08999e-13