/*--------------------------------*- C++ -*----------------------------------*\
| =========                 |                                                 |
| \\      /  F ield         | OpenFOAM: The Open Source CFD Toolbox           |
|  \\    /   O peration     | Version:  5.0                                   |
|   \\  /    A nd           | Web:      www.OpenFOAM.org                      |
|    \\/     M anipulation  |                                                 |
\*---------------------------------------------------------------------------*/
FoamFile
{
    version     2.0;
    format      ascii;
    class       volScalarField;
    location    "50.4676134421789371";
    object      VVVMean;
}
// * * * * * * * * * * * * * * * * * * * * * * * * * * * * * * * * * * * * * //

dimensions      [0 3 -3 0 0 0 0];

internalField   nonuniform List<scalar> 
60000
(
-4.60481e-15
-7.00991e-15
-3.36509e-15
-1.73031e-16
3.02786e-17
7.4117e-17
9.78759e-18
3.37927e-18
1.03307e-17
-5.1447e-18
-3.12689e-16
-9.79796e-16
-2.81185e-16
-1.77549e-16
-9.64622e-16
-2.18506e-15
-8.27235e-18
2.18215e-15
1.23113e-14
1.46605e-14
1.64664e-14
2.50632e-15
-1.09781e-16
-1.05717e-16
2.35504e-15
1.03679e-14
2.97376e-15
-3.17378e-15
-5.34836e-15
-1.78606e-15
-9.68272e-16
-3.88257e-15
-1.22021e-14
-1.51638e-14
-6.2548e-15
2.58601e-16
-3.49247e-17
-3.05236e-16
-8.60045e-16
-1.75872e-15
-5.92759e-13
-4.0033e-13
-2.65673e-14
1.21729e-14
6.64589e-14
3.44081e-15
-2.2407e-16
-5.44537e-16
1.55535e-17
-1.19259e-14
-1.35927e-13
-1.93626e-13
-1.27563e-14
3.93974e-15
8.10523e-15
1.41375e-14
8.94378e-14
1.97102e-13
2.0567e-14
-4.57857e-14
-2.08106e-13
-1.18916e-13
-3.06729e-15
3.52675e-13
4.18429e-12
8.05521e-12
3.47825e-12
1.93491e-13
-5.06582e-14
-7.01286e-14
-2.04209e-15
-5.75676e-16
-5.39874e-14
-2.33535e-13
-2.68932e-13
-5.08674e-15
1.46302e-14
8.15132e-16
-4.21004e-14
-3.3687e-13
-1.9686e-12
-2.31229e-12
-2.08476e-13
3.75639e-14
5.30034e-13
1.1791e-13
3.59085e-16
-6.44429e-15
1.11801e-15
-9.49779e-15
-3.49273e-13
-1.22345e-12
-3.78664e-13
9.09799e-16
1.61122e-13
9.64528e-13
3.14235e-12
4.16511e-12
1.7307e-13
-2.51063e-12
-1.37071e-11
-7.07527e-12
-1.05437e-13
4.21909e-12
3.42505e-11
5.19952e-11
1.98569e-11
9.30811e-13
-1.4177e-13
-6.55493e-13
-5.14371e-14
5.63632e-15
-7.2755e-17
-1.12614e-13
-6.23246e-13
-2.11701e-13
2.35393e-14
3.2456e-13
2.77906e-14
-1.85488e-13
-4.31566e-12
-8.22746e-12
-9.04203e-13
8.74716e-14
1.4239e-12
6.87184e-13
3.21972e-14
-1.49141e-14
2.75455e-16
3.30095e-18
-5.17099e-13
-3.88427e-12
-2.3761e-12
-1.15022e-14
6.87652e-13
4.43908e-12
1.13883e-11
1.14762e-11
3.57295e-13
-1.38807e-11
-8.36393e-11
-4.30765e-11
-3.81996e-13
2.07348e-11
1.14317e-10
1.21265e-10
2.73569e-11
9.33779e-14
-4.25118e-12
-7.89177e-12
-1.44388e-12
-8.18284e-16
9.6516e-15
-4.14926e-14
-1.18314e-12
-1.18653e-12
-4.27592e-16
1.3884e-12
1.27513e-12
-1.24407e-14
-5.12275e-12
-2.52723e-11
-5.35895e-12
3.62089e-14
2.11401e-12
1.33417e-12
1.64354e-13
-1.65391e-15
1.38229e-16
3.28808e-14
-4.86294e-13
-1.19759e-11
-1.41613e-11
-6.63291e-13
1.33541e-12
1.3671e-11
2.93591e-11
2.08669e-11
5.94454e-13
-3.44717e-11
-2.80855e-10
-1.80355e-10
-2.15668e-12
6.62294e-11
3.1867e-10
2.81633e-10
5.33066e-11
3.6552e-14
-1.80996e-11
-3.70887e-11
-1.10084e-11
-3.20145e-13
1.30399e-15
-2.80123e-15
-1.09057e-12
-3.36628e-12
-1.33431e-13
1.78209e-12
6.55862e-12
3.38279e-13
-4.53263e-13
-3.86649e-11
-2.23122e-11
-5.95699e-14
2.26543e-12
1.84486e-12
3.06621e-13
5.55006e-15
1.88049e-15
1.40368e-13
-1.2323e-13
-2.43227e-11
-6.1064e-11
-1.36598e-11
5.57307e-13
3.63602e-11
8.04617e-11
4.28817e-11
1.46669e-12
-4.27868e-11
-5.69414e-10
-5.44937e-10
-1.15602e-11
1.34119e-10
7.2651e-10
6.14885e-10
1.24212e-10
6.59349e-13
-1.9476e-11
-7.48108e-11
-4.37065e-11
-5.20066e-12
-8.66505e-14
-4.36659e-15
-4.00393e-13
-3.11756e-12
-9.17655e-13
9.09256e-13
1.52762e-11
8.52629e-12
1.07925e-12
-1.62003e-11
-3.97274e-11
-1.47807e-12
9.71908e-13
1.56517e-12
2.35128e-13
5.49328e-14
5.10805e-14
2.46676e-13
-2.2979e-14
-3.18307e-11
-1.61159e-10
-8.41169e-11
-4.47655e-14
7.09669e-11
2.00042e-10
8.87394e-11
1.72806e-12
-5.61239e-11
-8.02164e-10
-1.04019e-09
-3.55391e-11
2.00214e-10
1.29096e-09
1.07381e-09
2.20672e-10
2.66095e-12
-1.18878e-11
-6.5653e-11
-6.82329e-11
-2.73838e-11
-5.98384e-12
-1.4989e-12
-1.2719e-12
-2.06017e-12
-8.98916e-13
1.06131e-13
1.17434e-11
2.42466e-11
1.26086e-11
-4.31144e-13
-1.75384e-11
-1.71732e-12
3.76842e-13
6.34513e-13
7.33693e-15
4.68192e-15
8.67529e-14
1.7944e-13
-1.97141e-14
-3.75916e-11
-3.22664e-10
-2.27361e-10
-1.42166e-12
1.24799e-10
4.0765e-10
1.92803e-10
2.56892e-12
-9.62732e-11
-1.03942e-09
-1.47158e-09
-8.03627e-11
2.44651e-10
1.98871e-09
1.65955e-09
3.26976e-10
4.58683e-12
-7.50499e-12
-3.68372e-11
-3.62221e-11
-2.68151e-11
-2.44913e-11
-2.11087e-11
-1.28399e-11
-5.44432e-12
-7.88236e-13
1.31675e-14
4.34514e-12
2.27615e-11
1.9526e-11
9.30439e-13
-1.21897e-12
-5.51106e-14
2.28581e-12
1.62014e-12
-6.4369e-16
-1.63624e-14
2.13313e-16
1.50213e-16
-2.0842e-13
-5.04093e-11
-4.74653e-10
-3.35922e-10
-1.39742e-12
2.18213e-10
7.3878e-10
3.92763e-10
6.01998e-12
-1.80148e-10
-1.49077e-09
-1.85078e-09
-1.21704e-10
3.05698e-10
2.85335e-09
2.23423e-09
3.63591e-10
3.07509e-12
-6.89945e-12
-2.03741e-11
-1.1027e-11
-5.82744e-12
-1.35407e-11
-4.19171e-11
-5.68923e-11
-2.92407e-11
-4.14915e-12
-8.91062e-15
8.81956e-13
9.29705e-12
9.70385e-12
4.98481e-12
9.25486e-14
1.42823e-12
1.61319e-11
8.91739e-12
8.41557e-14
-4.26117e-14
-6.6944e-15
-2.34066e-13
-5.27061e-12
-8.01997e-11
-4.50554e-10
-2.98382e-10
2.1454e-13
3.9501e-10
1.17012e-09
6.19549e-10
1.32527e-11
-2.61036e-10
-2.24449e-09
-2.47194e-09
-1.47102e-10
4.51132e-10
3.55148e-09
2.36371e-09
2.78684e-10
6.03779e-13
-8.03213e-12
-1.10771e-11
-2.34054e-12
-2.94113e-13
-1.73154e-12
-2.11958e-11
-6.8573e-11
-7.06366e-11
-2.34488e-11
-1.56873e-12
1.07645e-15
1.18954e-12
4.20661e-13
3.34107e-12
5.92725e-12
2.58675e-11
6.1145e-11
2.3306e-11
3.95147e-13
-3.38563e-14
-5.87882e-18
-3.17061e-13
-2.2722e-11
-1.5725e-10
-3.80477e-10
-1.61532e-10
5.16685e-12
6.48167e-10
1.46947e-09
7.12496e-10
2.33061e-11
-2.18724e-10
-2.7032e-09
-3.38642e-09
-2.09953e-10
5.6323e-10
3.62322e-09
1.94893e-09
1.56145e-10
-1.02465e-14
-7.97476e-12
-4.582e-12
-1.23955e-13
1.37654e-14
-4.30482e-14
-7.50422e-12
-4.54709e-11
-6.9567e-11
-4.16733e-11
-1.03287e-11
-1.34899e-12
-3.1855e-14
-1.91813e-12
8.0739e-14
1.98441e-11
1.03679e-10
1.34565e-10
3.8423e-11
1.02851e-12
-2.06147e-14
-3.75569e-17
-2.42747e-13
-3.42049e-11
-2.50842e-10
-4.06002e-10
-8.33055e-11
1.85232e-11
7.17744e-10
1.40383e-09
7.18921e-10
5.22515e-11
-7.51297e-11
-2.09604e-09
-3.84373e-09
-3.7644e-10
3.78147e-10
2.81652e-09
1.33703e-09
7.29067e-11
-2.14033e-13
-5.69731e-12
-7.87269e-13
2.09524e-13
2.24461e-12
1.40341e-13
-3.3838e-12
-3.71605e-11
-5.94257e-11
-3.3454e-11
-1.04419e-11
-4.36922e-12
-4.55028e-12
-3.05866e-11
-4.04425e-12
1.30367e-11
1.59732e-10
1.94933e-10
6.69562e-11
4.7284e-12
2.46927e-15
-1.94419e-14
-7.87006e-13
-4.41222e-11
-3.19135e-10
-4.90796e-10
-9.34986e-11
1.13266e-11
5.25854e-10
1.13395e-09
7.7838e-10
1.57554e-10
-2.75639e-12
-9.69677e-10
-3.24121e-09
-6.00917e-10
1.29703e-10
1.64785e-09
7.57851e-10
3.1042e-11
-3.8899e-13
-2.58652e-12
-1.22244e-15
5.78365e-12
1.74884e-11
3.31596e-12
-1.51397e-12
-3.65866e-11
-6.14998e-11
-2.46681e-11
-3.03917e-12
-1.10507e-12
-9.69313e-12
-5.02031e-11
-2.75485e-11
1.15673e-12
9.14288e-11
1.54451e-10
7.89904e-11
1.51081e-11
1.10508e-12
1.39718e-13
-5.07524e-14
-4.15577e-11
-4.6279e-10
-8.1248e-10
-2.14379e-10
1.6991e-12
3.23693e-10
8.48943e-10
8.56161e-10
3.57899e-10
6.23314e-12
-2.42535e-10
-1.5156e-09
-4.90351e-10
1.32528e-11
4.93227e-10
2.62009e-10
1.35318e-11
-5.12277e-14
-2.86653e-13
6.12874e-13
2.25324e-11
5.04391e-11
1.30825e-11
-6.16088e-13
-3.70599e-11
-6.25012e-11
-1.85531e-11
-5.13214e-13
-4.25821e-15
-4.65125e-12
-3.08573e-11
-3.19127e-11
-4.02568e-14
2.37277e-11
5.70994e-11
4.17465e-11
1.54626e-11
5.31591e-12
5.4426e-12
3.34931e-12
-5.99899e-12
-4.85756e-10
-1.60121e-09
-7.26378e-10
-6.21612e-12
1.57118e-10
9.20513e-10
1.35446e-09
5.35901e-10
7.11269e-12
-1.41375e-10
-7.387e-10
-2.89794e-10
-1.39338e-14
8.1172e-11
9.43465e-11
1.95104e-11
8.36154e-13
1.33233e-13
3.49657e-12
2.69668e-11
5.04278e-11
1.58532e-11
-5.83633e-13
-5.45709e-11
-9.18043e-11
-1.95584e-11
-1.40587e-14
6.09725e-13
-4.90914e-13
-1.36714e-11
-3.62938e-11
-2.07527e-12
7.07675e-12
5.18231e-11
5.00394e-11
1.24361e-11
1.08996e-12
9.38763e-13
4.6984e-12
-2.21744e-14
-2.55202e-10
-1.97867e-09
-1.60482e-09
-4.90704e-11
2.52854e-10
1.90043e-09
2.00058e-09
4.31239e-10
-3.34222e-13
-3.08665e-10
-7.76837e-10
-2.80021e-10
-1.57696e-12
4.55624e-11
1.3428e-10
7.98814e-11
1.46261e-11
2.67588e-12
4.76904e-12
1.38622e-11
1.69738e-11
3.99115e-12
-1.4257e-12
-8.57438e-11
-1.94697e-10
-5.68616e-11
-6.65436e-14
5.87591e-12
2.65911e-13
-1.63949e-12
-2.05875e-11
-2.93124e-12
5.10809e-12
6.25588e-11
5.83825e-11
6.64423e-12
-1.17303e-13
-1.21887e-12
-1.87083e-15
-1.86811e-14
-1.05097e-10
-1.3042e-09
-1.43632e-09
-3.19335e-11
4.76454e-10
2.27222e-09
1.54087e-09
1.63593e-10
-8.56628e-12
-4.25629e-10
-7.83566e-10
-2.51546e-10
-3.05146e-13
1.21363e-10
3.42239e-10
1.69174e-10
2.08606e-11
1.64839e-12
6.87873e-12
3.176e-11
2.083e-11
3.05799e-13
-8.15212e-12
-1.12396e-10
-3.30137e-10
-2.09972e-10
-9.58042e-12
2.7976e-12
3.04812e-12
-5.67888e-17
-6.9393e-13
-1.40725e-14
4.64234e-12
3.47498e-11
3.57238e-11
1.24815e-12
-1.11816e-11
-4.83343e-11
-2.14964e-11
-7.61049e-12
-6.73561e-11
-4.56162e-10
-3.47164e-10
6.33177e-13
5.42102e-10
1.28256e-09
4.92702e-10
1.27859e-11
-5.19318e-11
-4.2694e-10
-4.9299e-10
-7.98887e-11
4.18396e-12
1.63289e-10
1.5277e-10
1.19409e-11
3.15879e-14
7.39031e-12
1.44274e-10
3.33023e-10
1.3437e-10
5.17446e-13
-3.54606e-11
-1.34901e-10
-2.40413e-10
-2.43365e-10
-6.02806e-11
-4.23891e-13
5.17235e-13
-1.60623e-13
-6.987e-14
-7.59431e-15
1.55065e-12
6.31802e-11
1.99996e-10
4.37808e-11
-1.41756e-11
-2.91421e-10
-2.98456e-10
-8.7477e-11
-3.67017e-11
-5.49146e-11
-1.80501e-11
4.02999e-12
1.64733e-10
3.1851e-10
1.62585e-10
8.71181e-12
-1.57263e-11
-1.90581e-10
-2.10491e-10
-1.69812e-11
9.09376e-12
6.27521e-11
1.98384e-11
1.62482e-12
8.71046e-12
1.17437e-10
3.56174e-10
3.89153e-10
1.28995e-10
8.35929e-13
-4.45395e-11
-1.44695e-10
-1.38261e-10
-1.20459e-10
-8.22777e-11
-2.28139e-11
-2.20726e-12
-2.21802e-11
-2.51278e-11
-1.76226e-12
2.31906e-11
3.84259e-10
7.84926e-10
2.39808e-10
-6.94874e-12
-7.71371e-10
-1.67481e-09
-8.29779e-10
-1.30832e-10
-4.80623e-12
1.02881e-13
6.53119e-12
2.95967e-11
6.6375e-11
7.95524e-11
2.67402e-11
-5.21263e-14
-3.87603e-11
-8.30488e-11
-1.4625e-11
3.10157e-13
1.09455e-11
1.02074e-11
7.45537e-12
2.19336e-11
8.94192e-11
2.33812e-10
2.67667e-10
8.30562e-11
2.69914e-13
-3.3437e-11
-8.74495e-11
-5.0986e-11
-2.22504e-11
-1.3558e-11
-9.62636e-12
-1.03005e-11
-7.82799e-12
-8.15796e-11
-4.18665e-11
6.33354e-12
4.8626e-10
1.17396e-09
4.00599e-10
-3.3979e-12
-1.00435e-09
-3.45831e-09
-2.49622e-09
-4.35385e-10
-5.34749e-12
4.35067e-12
1.85606e-11
3.16298e-11
7.31417e-11
1.61e-10
1.69374e-10
3.81951e-11
-5.40068e-13
-6.09707e-11
-9.84342e-11
-2.08705e-11
-1.49265e-14
4.42552e-12
1.49816e-11
3.40371e-11
8.8237e-11
1.83484e-10
1.90151e-10
3.55663e-11
-6.47437e-12
-1.89191e-10
-1.74572e-10
-2.68418e-11
-1.22484e-12
-2.35461e-14
6.92635e-14
1.83114e-14
8.83217e-13
-1.53389e-11
-1.67748e-11
3.01769e-12
2.04753e-10
4.5071e-10
1.26746e-10
-8.99221e-12
-9.64501e-10
-3.27147e-09
-2.45486e-09
-3.32659e-10
1.55986e-13
2.55918e-11
1.28058e-11
3.3625e-12
1.21878e-11
5.65606e-11
7.24869e-11
1.24105e-11
-2.18897e-12
-7.64506e-11
-1.15254e-10
-1.65807e-11
3.60611e-12
1.05627e-10
2.14528e-10
1.54601e-10
8.31888e-11
7.10292e-11
8.50061e-11
2.73301e-11
-1.43111e-11
-6.92323e-10
-1.18201e-09
-2.58737e-10
-3.28096e-13
4.98941e-11
1.38951e-10
6.65944e-11
3.15347e-11
9.46199e-14
-4.13397e-13
2.33787e-12
1.16891e-10
3.42005e-10
1.50539e-10
-1.24779e-13
-2.62805e-10
-1.28289e-09
-1.33527e-09
-3.23529e-10
-1.04751e-11
-2.14765e-13
-6.62732e-12
-2.72944e-11
-1.20371e-11
-6.29144e-14
2.35787e-12
4.07196e-12
2.62491e-13
-1.64402e-13
-1.53176e-13
1.41751e-12
3.80927e-11
1.34159e-10
2.06649e-10
1.99544e-10
1.15876e-10
4.08399e-11
1.2301e-11
1.96838e-12
-3.22124e-12
-2.0254e-10
-7.66547e-10
-5.53895e-10
-5.0193e-11
4.48466e-12
1.0691e-10
1.36951e-10
-1.00618e-12
-4.78901e-12
7.10418e-15
3.855e-11
2.68134e-10
3.59342e-10
7.70762e-11
-4.92083e-12
-3.35718e-10
-8.47127e-10
-5.88916e-10
-1.43228e-10
-1.71846e-11
-1.18964e-11
-5.35685e-11
-1.08575e-10
-6.01352e-11
-5.08155e-12
3.12647e-13
1.05854e-11
3.09739e-11
5.27442e-11
7.33886e-11
8.88562e-11
1.03171e-10
1.18736e-10
1.27105e-10
1.07756e-10
5.24207e-11
7.26016e-12
-3.24038e-14
-8.69854e-12
-5.88732e-11
-1.61462e-10
-1.7016e-10
-4.07749e-11
2.29597e-14
1.8342e-11
2.59219e-11
2.08375e-12
-4.63107e-12
-5.31382e-12
1.24169e-14
1.54099e-11
7.49634e-11
8.08965e-11
1.51879e-11
-2.30103e-12
-1.4621e-10
-4.47083e-10
-3.67572e-10
-1.00659e-10
-9.27669e-12
-9.19266e-13
-4.03277e-12
-2.51438e-11
-4.7718e-11
-2.49349e-11
-7.53045e-13
1.06035e-11
1.2977e-10
3.08557e-10
2.67589e-10
9.09996e-11
1.38236e-11
5.03327e-12
2.43533e-11
1.04545e-10
1.33494e-10
2.35605e-11
-5.74755e-12
-2.17687e-10
-4.65447e-10
-2.50121e-10
-2.52069e-11
9.63279e-13
4.54153e-11
7.80303e-11
2.25927e-11
7.33321e-14
1.53794e-19
-8.46963e-16
-3.18921e-15
-1.09535e-15
-1.92232e-16
-9.31995e-17
1.15727e-16
2.4162e-15
5.84213e-15
4.20033e-15
1.75844e-15
1.12313e-15
9.19969e-16
1.88462e-16
-2.24594e-17
-1.68212e-16
-3.77743e-16
-9.96804e-16
-9.31798e-16
-1.33972e-17
1.5608e-15
4.08105e-15
3.16026e-16
-3.71341e-15
-1.34913e-14
-2.24268e-14
-2.38663e-14
-1.97578e-14
-5.29493e-15
-2.30231e-16
4.95673e-17
5.91692e-18
-7.63832e-16
-4.18908e-15
-1.90382e-15
3.08382e-15
1.59642e-15
2.80709e-16
2.40716e-17
4.02585e-17
-4.29847e-14
-6.68185e-14
-1.78732e-14
1.53658e-15
5.76278e-14
9.10303e-14
5.34694e-14
3.18013e-14
8.87258e-15
4.60233e-15
4.2442e-15
4.53298e-14
2.31261e-13
4.65429e-13
8.03161e-13
1.56285e-12
2.29552e-12
1.85156e-12
5.64483e-13
1.67991e-14
-2.42654e-14
-5.4909e-15
2.67809e-16
-1.55051e-15
7.26002e-17
2.11397e-15
-5.73591e-15
-5.39619e-14
-4.92532e-15
5.36699e-14
5.19591e-13
5.10537e-13
1.41394e-13
-1.65928e-17
-2.65936e-14
1.96539e-15
2.15538e-13
1.15502e-14
-1.38824e-14
-2.91901e-14
-9.78357e-13
-9.54339e-13
-1.10294e-13
6.51263e-14
1.36304e-12
2.59272e-12
1.00284e-12
8.27105e-14
-2.2642e-14
-1.19676e-13
-8.57926e-14
5.30898e-15
7.24812e-13
3.35383e-12
8.55608e-12
1.78237e-11
2.57735e-11
2.24575e-11
7.64128e-12
8.58799e-14
-1.53679e-12
-3.08088e-12
-4.12154e-13
-4.22825e-16
4.13558e-13
1.0407e-12
1.15148e-13
-8.44794e-15
-2.51524e-15
2.9736e-13
3.22947e-12
4.40365e-12
1.65394e-12
4.67361e-14
-1.24306e-13
-2.98236e-13
3.16848e-15
1.40094e-14
-5.72314e-14
-4.20456e-13
-5.28775e-12
-5.58871e-12
-4.86158e-13
3.26657e-13
5.26681e-12
1.04514e-11
4.17267e-12
9.23208e-14
-6.34547e-13
-2.58616e-12
-1.37498e-12
-1.09337e-14
1.15328e-12
8.64549e-12
2.27174e-11
4.00123e-11
4.8754e-11
3.85525e-11
9.99135e-12
-8.87172e-14
-2.24292e-11
-4.16765e-11
-7.51055e-12
-2.80235e-15
3.55928e-12
5.72714e-12
4.38637e-13
-8.84362e-14
-1.04909e-13
1.43201e-13
4.09753e-12
6.60027e-12
1.80117e-12
5.92775e-16
-1.80724e-12
-4.42587e-12
-5.93109e-13
2.59238e-14
-2.02296e-16
-8.08743e-13
-1.32422e-11
-2.30462e-11
-2.49285e-12
9.67612e-13
1.45828e-11
2.77016e-11
1.43695e-11
3.68122e-13
-2.55186e-12
-1.58543e-11
-7.94736e-12
-4.82728e-13
9.48632e-13
1.73822e-11
5.22627e-11
8.33665e-11
8.78529e-11
6.8813e-11
1.89342e-11
-6.08778e-13
-9.9025e-11
-2.1774e-10
-5.56414e-11
-8.22514e-14
1.73395e-11
2.61221e-11
2.16804e-12
-2.72251e-13
-9.56206e-13
1.22118e-14
3.64912e-12
7.41272e-12
1.73364e-12
-3.14483e-14
-5.68104e-12
-1.70266e-11
-5.96086e-12
7.81872e-16
2.98764e-13
-1.37923e-13
-1.52277e-11
-7.14756e-11
-1.5664e-11
9.61882e-13
3.04428e-11
5.3381e-11
3.2347e-11
2.2397e-12
-3.29812e-12
-4.87841e-11
-4.1866e-11
-6.86123e-12
1.13013e-13
2.29816e-11
1.05266e-10
1.72174e-10
1.71848e-10
1.5045e-10
5.91625e-11
-1.41526e-13
-2.04483e-10
-6.76023e-10
-2.64394e-10
-1.36733e-12
5.25306e-11
9.99464e-11
1.47811e-11
-7.14618e-14
-2.51634e-12
-1.11015e-13
1.50983e-12
5.37954e-12
9.74989e-13
-1.55073e-13
-1.01776e-11
-3.87747e-11
-2.26894e-11
-2.4402e-13
2.37912e-12
3.17655e-13
-2.77914e-12
-1.21484e-10
-5.86177e-11
3.2061e-13
4.86657e-11
8.46872e-11
4.50697e-11
3.81385e-12
-2.45781e-12
-6.88619e-11
-1.27715e-10
-4.12045e-11
-2.20507e-13
2.24312e-11
1.68615e-10
2.9577e-10
2.9371e-10
2.77527e-10
1.35714e-10
2.16272e-13
-3.50297e-10
-1.55145e-09
-7.95578e-10
-7.96199e-12
1.09474e-10
2.7387e-10
6.4198e-11
2.78566e-13
-1.48926e-12
-2.85642e-13
3.66572e-13
1.33918e-12
4.90991e-16
-3.97095e-12
-2.47357e-11
-6.49053e-11
-5.91951e-11
-4.95267e-12
2.50218e-12
7.90311e-12
2.5738e-13
-8.79812e-11
-1.12072e-10
1.71555e-14
7.54598e-11
1.25089e-10
4.49252e-11
1.56419e-12
-3.34227e-12
-6.0437e-11
-1.99877e-10
-1.37864e-10
-5.57192e-12
2.00367e-11
2.39638e-10
4.5103e-10
5.02904e-10
5.17993e-10
2.63988e-10
9.19252e-13
-5.74073e-10
-2.92676e-09
-1.74049e-09
-2.64467e-11
1.86195e-10
5.95314e-10
1.85218e-10
5.27419e-12
-8.74088e-14
-7.12498e-15
1.12121e-12
1.49734e-12
-2.65342e-13
-2.42395e-11
-8.04887e-11
-1.12438e-10
-9.77505e-11
-2.40894e-11
1.73916e-13
1.87741e-11
5.3532e-12
-2.26601e-11
-9.76059e-11
-1.05722e-13
1.16862e-10
2.25881e-10
5.73322e-11
4.41126e-14
-1.60111e-11
-6.90827e-11
-2.00077e-10
-2.09926e-10
-2.29429e-11
1.46409e-11
2.93644e-10
6.29718e-10
8.03343e-10
8.99927e-10
4.43577e-10
1.19348e-12
-9.40601e-10
-4.78445e-09
-2.98258e-09
-5.45401e-11
3.03241e-10
1.04144e-09
3.76526e-10
2.22981e-11
4.80736e-14
8.10844e-14
3.7341e-12
4.43706e-12
-1.00113e-13
-3.48876e-11
-1.55699e-10
-2.04128e-10
-1.44717e-10
-5.02378e-11
-6.68933e-13
1.11067e-11
3.15245e-12
-2.35822e-12
-2.9748e-11
1.05494e-12
2.43986e-10
4.4575e-10
9.13062e-11
-4.65698e-13
-7.57115e-11
-1.43923e-10
-1.84711e-10
-1.86582e-10
-2.3133e-11
1.37837e-11
3.13248e-10
7.25658e-10
1.12639e-09
1.38234e-09
5.92651e-10
2.10861e-13
-1.43156e-09
-6.86635e-09
-4.19029e-09
-7.16475e-11
4.68432e-10
1.48471e-09
5.74387e-10
4.64905e-11
5.80845e-13
5.03265e-13
7.58661e-12
8.82876e-12
-1.01642e-14
-3.07393e-11
-1.66532e-10
-2.49418e-10
-1.80805e-10
-6.98393e-11
-7.38754e-12
5.80832e-13
-3.78017e-14
-7.53982e-13
-3.08452e-13
4.79189e-11
6.14255e-10
7.2518e-10
1.33157e-10
-4.12401e-13
-1.34602e-10
-3.5602e-10
-3.16217e-10
-1.75224e-10
-1.69943e-11
1.29251e-11
2.60404e-10
8.00949e-10
1.64401e-09
1.95116e-09
5.9955e-10
-2.87784e-12
-1.89513e-09
-8.25936e-09
-4.95656e-09
-7.32246e-11
5.94359e-10
1.63932e-09
6.02928e-10
4.73942e-11
9.18049e-13
2.05874e-12
1.84558e-11
1.86356e-11
5.1279e-14
-3.68726e-11
-1.82888e-10
-2.31657e-10
-1.47791e-10
-5.8768e-11
-1.53421e-11
-1.10097e-12
-3.10535e-11
-8.09691e-12
7.89335e-12
3.69409e-10
1.12027e-09
7.93477e-10
1.35687e-10
3.44824e-13
-4.9658e-11
-3.4544e-10
-6.51046e-10
-4.15929e-10
-4.19973e-11
8.44161e-12
2.48483e-10
1.03601e-09
2.35829e-09
2.31119e-09
4.65783e-10
-1.31949e-11
-2.13603e-09
-8.17283e-09
-4.99529e-09
-7.7874e-11
5.76124e-10
1.50665e-09
5.04226e-10
3.7666e-11
1.74228e-12
6.40137e-12
3.92181e-11
4.06546e-11
6.90952e-13
-4.32118e-11
-2.49847e-10
-2.64276e-10
-1.06776e-10
-2.33515e-11
-8.20118e-12
-1.64061e-11
-1.76772e-10
-6.65256e-11
3.15272e-11
8.81629e-10
1.38817e-09
6.08472e-10
8.5285e-11
2.11131e-12
-1.9528e-12
-1.14934e-10
-8.10388e-10
-1.12406e-09
-2.20011e-10
2.69591e-12
3.1235e-10
1.35838e-09
2.65401e-09
1.99835e-09
3.01051e-10
-1.94641e-11
-1.84676e-09
-6.75846e-09
-4.11016e-09
-5.474e-11
5.40155e-10
1.23073e-09
3.49401e-10
2.5525e-11
2.44678e-12
1.06743e-11
5.90921e-11
7.84272e-11
6.30213e-12
-2.54455e-11
-2.90404e-10
-3.62262e-10
-1.22199e-10
-9.57418e-12
-6.78258e-13
-2.27892e-11
-1.82547e-10
-9.96594e-11
2.77427e-11
9.44456e-10
1.22888e-09
3.50277e-10
2.74035e-11
1.57226e-12
2.75603e-13
-7.67197e-12
-5.33387e-10
-1.99182e-09
-8.19878e-10
-8.81984e-13
3.51957e-10
1.47615e-09
2.12725e-09
1.24373e-09
1.90946e-10
-7.21044e-12
-1.02061e-09
-4.06511e-09
-2.41955e-09
-2.31561e-11
3.40562e-10
6.4198e-10
1.87481e-10
2.7978e-11
7.92196e-12
1.4267e-11
4.82348e-11
8.05512e-11
1.9555e-11
-5.60247e-12
-2.0903e-10
-3.83898e-10
-1.61134e-10
-1.48509e-11
-2.94875e-13
-1.18581e-11
-7.72154e-11
-1.91587e-11
7.39973e-11
9.18179e-10
8.10313e-10
1.30061e-10
1.51877e-12
-2.36317e-15
3.47637e-13
-6.66558e-14
-2.10032e-10
-2.00009e-09
-1.63335e-09
-2.41552e-11
2.7466e-10
1.09152e-09
1.11606e-09
6.33726e-10
1.48818e-10
-5.87299e-13
-4.15546e-10
-1.94515e-09
-1.2411e-09
-3.02121e-11
6.26543e-11
2.62023e-10
2.41015e-10
1.30592e-10
5.16293e-11
1.77177e-11
9.98892e-12
1.4389e-11
9.12492e-12
-5.95972e-13
-1.01632e-10
-3.13534e-10
-1.68919e-10
-2.20023e-11
-1.66446e-12
-1.03673e-11
-4.2171e-11
-1.48681e-12
1.11837e-10
6.74745e-10
5.42621e-10
8.97097e-11
3.52317e-13
-1.49308e-12
-1.98523e-13
-4.94718e-13
-1.36507e-10
-1.5495e-09
-1.8632e-09
-9.39774e-11
1.03084e-10
5.64444e-10
6.00462e-10
4.88842e-10
1.72756e-10
5.34839e-13
-2.10269e-10
-1.04308e-09
-7.07401e-10
-2.85413e-11
3.9842e-11
3.66139e-10
5.95255e-10
3.99499e-10
1.30995e-10
1.72743e-11
8.34382e-14
-4.56155e-13
-4.41766e-13
-1.94051e-12
-4.67694e-11
-2.02983e-10
-1.64605e-10
-2.91349e-11
-4.14601e-12
-1.5004e-11
-2.71136e-11
-8.09948e-13
6.01289e-11
4.45377e-10
5.07108e-10
1.40006e-10
3.01954e-12
-2.06638e-12
-6.44657e-12
-1.09911e-11
-1.47988e-10
-1.10509e-09
-1.54914e-09
-1.68773e-10
2.787e-11
3.57011e-10
5.08079e-10
4.62248e-10
1.78409e-10
1.85042e-12
-1.2449e-10
-6.75911e-10
-4.07311e-10
-3.83729e-12
1.65084e-10
8.59134e-10
8.52644e-10
3.20761e-10
7.64614e-11
2.67128e-11
4.11964e-12
-3.45072e-12
-6.60242e-11
-7.63942e-11
-6.46964e-11
-1.2205e-10
-1.59202e-10
-6.10058e-11
-1.25179e-11
-1.60942e-11
-1.83472e-11
-2.67287e-14
6.60434e-11
3.51464e-10
3.73113e-10
1.27588e-10
6.3805e-12
-2.22864e-12
-3.46391e-11
-1.00403e-10
-2.9244e-10
-7.67306e-10
-7.55886e-10
-7.69735e-11
2.24859e-11
2.80303e-10
3.7552e-10
2.46293e-10
6.50805e-11
4.02637e-13
-3.16553e-11
-1.6505e-10
-6.58049e-11
4.66226e-12
3.49641e-10
6.06652e-10
1.50039e-10
7.28115e-12
9.81227e-12
1.41164e-10
2.38011e-10
5.7444e-12
-1.76413e-10
-6.21206e-10
-2.91528e-10
-8.01515e-11
-5.15455e-11
-4.56645e-11
-3.15311e-11
-2.8944e-11
-6.63786e-12
-1.93899e-17
2.10694e-11
1.41433e-10
3.12249e-10
3.05221e-10
6.00693e-11
-2.28432e-12
-1.80345e-10
-5.1565e-10
-6.33189e-10
-5.03329e-10
-1.59848e-10
-8.81975e-13
6.25049e-11
2.0387e-10
1.44337e-10
4.56447e-11
5.3688e-12
-2.50423e-14
-5.37725e-12
-8.20101e-12
-1.44061e-14
3.27402e-11
1.27418e-10
4.98011e-11
3.49934e-12
6.41715e-12
1.32708e-10
5.12211e-10
3.97977e-10
1.22709e-11
-2.11429e-10
-1.34177e-09
-9.84875e-10
-1.75548e-10
-1.53514e-11
-3.47672e-12
-6.29707e-12
-1.12221e-11
-1.58201e-11
-2.50616e-11
-4.32383e-13
5.56584e-11
5.68489e-10
1.0246e-09
4.02847e-10
9.59211e-13
-4.56327e-10
-2.20298e-09
-2.05895e-09
-4.70015e-10
-3.28129e-12
5.38272e-11
1.70828e-10
9.06675e-11
1.47995e-11
1.4383e-12
1.86688e-13
-5.58572e-15
-9.35956e-13
-9.45038e-13
2.75192e-14
6.30771e-12
2.43892e-11
4.2532e-11
8.35667e-11
1.74893e-10
3.39172e-10
4.02153e-10
1.46339e-10
9.90212e-14
-2.33863e-10
-1.11345e-09
-1.02383e-09
-1.84256e-10
-4.59868e-13
9.84332e-12
7.54441e-12
-7.52183e-14
-5.9945e-12
-5.46593e-11
-2.37572e-11
3.1627e-12
2.60329e-10
7.89558e-10
5.22494e-10
2.00984e-11
-2.23262e-10
-2.71082e-09
-4.27185e-09
-1.28916e-09
-1.17071e-11
9.58201e-11
2.58367e-10
1.3274e-10
3.62417e-11
9.02398e-12
1.08325e-12
-2.61546e-13
-1.43407e-11
-3.60619e-11
-1.38545e-11
-5.7983e-15
1.45112e-11
7.44709e-11
1.42263e-10
2.26929e-10
3.544e-10
3.9402e-10
1.26827e-10
-3.0358e-12
-4.77846e-10
-1.10048e-09
-4.39556e-10
-1.6652e-11
8.95802e-12
6.62764e-11
4.81049e-11
2.62864e-12
-3.21887e-13
-3.34662e-11
-4.08454e-11
-5.45857e-13
4.42483e-11
2.76946e-10
2.71841e-10
1.76756e-11
-1.36513e-10
-2.20356e-09
-4.35756e-09
-1.75093e-09
-3.14436e-11
9.47561e-11
2.6704e-10
8.94312e-11
7.31476e-12
1.58857e-13
-2.9079e-15
-1.32853e-12
-1.7573e-11
-4.48303e-11
-1.51443e-11
1.36458e-12
1.39393e-10
5.52621e-10
7.2146e-10
5.12977e-10
3.05075e-10
1.72605e-10
3.31815e-11
-1.61819e-11
-9.12544e-10
-2.3319e-09
-8.6938e-10
-8.81329e-12
8.3456e-11
2.92475e-10
1.95159e-10
2.7361e-11
1.29013e-11
-8.40342e-14
-2.88269e-12
-3.1705e-14
1.56826e-11
9.2925e-11
8.53138e-11
5.45118e-12
-3.82078e-11
-7.88855e-10
-2.17881e-09
-1.36872e-09
-1.39862e-10
-3.01031e-14
8.46153e-13
-4.66132e-14
-1.23325e-12
-1.99884e-13
1.62315e-13
1.70693e-12
1.39513e-12
6.90714e-13
3.40476e-12
2.83404e-11
8.52551e-11
1.04932e-10
9.49641e-11
1.20654e-10
1.67786e-10
1.45669e-10
3.17651e-11
-3.24691e-12
-3.29192e-10
-1.21712e-09
-8.91415e-10
-7.32307e-11
1.03599e-11
1.93024e-10
2.72763e-10
1.25164e-10
4.70884e-12
5.60379e-13
3.67474e-12
2.66044e-11
5.36464e-11
2.71173e-11
4.41008e-13
-1.86997e-11
-1.86812e-10
-4.63312e-10
-5.50468e-10
-2.99455e-10
-5.98611e-11
-5.58202e-12
-2.00735e-12
-2.23865e-12
-3.09029e-13
3.59767e-13
7.5798e-12
2.49591e-11
4.31388e-11
5.05823e-11
3.80775e-11
2.0436e-11
1.31894e-11
2.24091e-11
6.55793e-11
1.39281e-10
1.50867e-10
5.26631e-11
2.2994e-13
-5.98851e-11
-4.45059e-10
-7.70467e-10
-4.1189e-10
-2.94443e-11
7.01514e-12
1.09391e-10
1.32247e-10
4.53603e-11
1.07233e-11
4.06445e-14
-8.40483e-15
5.92859e-14
1.23323e-12
1.14645e-12
-3.05757e-14
-1.52083e-11
-1.06925e-10
-1.99928e-10
-1.47851e-10
-4.52848e-11
-3.84824e-12
-5.15836e-15
4.64833e-14
2.07164e-16
-1.28503e-13
-1.44335e-13
2.27926e-13
1.65836e-11
8.10732e-11
9.61982e-11
2.55133e-11
1.99398e-13
-1.16668e-12
-1.84294e-13
8.40784e-12
1.2462e-10
2.23441e-10
5.93225e-11
-1.00272e-12
-1.37261e-10
-4.04155e-10
-3.65043e-10
-1.09743e-10
-1.20196e-12
3.76757e-11
2.36569e-10
2.93276e-10
1.14929e-10
-2.09616e-17
-3.51649e-15
-6.66526e-16
2.66885e-17
5.30648e-16
2.56231e-16
3.84788e-17
-9.02538e-18
-1.89077e-18
3.78494e-16
1.5645e-15
1.18411e-15
2.22848e-16
-1.20938e-17
1.36498e-17
1.86867e-17
1.60486e-17
6.66407e-18
1.02761e-16
-2.58954e-16
-8.3056e-16
-1.40034e-17
1.17773e-17
-2.43205e-15
-1.69053e-14
-2.303e-14
-1.42374e-14
-4.92935e-15
-3.62504e-16
1.12274e-16
9.2109e-16
7.50591e-16
2.49429e-16
-1.15175e-15
-7.60428e-16
6.24875e-17
1.0326e-16
1.01047e-15
1.04847e-14
7.90622e-15
-4.76627e-13
-5.1403e-13
-7.29121e-15
3.09237e-14
4.91252e-14
1.16672e-14
6.18913e-16
-1.68747e-15
-5.89516e-15
1.28931e-16
2.58183e-14
6.35492e-14
5.59762e-14
5.94982e-14
2.32795e-13
5.73026e-13
9.41299e-13
1.41831e-12
1.76991e-12
4.01506e-13
-7.58819e-14
-3.56853e-13
-5.15164e-14
-1.35338e-13
-5.91705e-13
-7.69331e-13
-3.60447e-13
-4.09356e-14
1.40464e-14
3.11858e-13
6.66525e-13
3.99075e-13
6.80624e-14
1.0819e-15
-9.19062e-16
1.11647e-14
1.93794e-13
2.10211e-13
5.75762e-14
-5.0072e-15
-6.37028e-12
-7.15597e-12
-2.8425e-13
5.05173e-14
1.29416e-13
2.50827e-14
6.25061e-16
-8.36234e-15
-7.00144e-14
-3.26121e-14
4.99177e-17
6.22974e-14
3.11531e-13
8.99974e-13
2.90101e-12
5.9071e-12
7.85796e-12
9.89581e-12
1.28131e-11
4.64694e-12
-7.79293e-14
-5.19847e-12
-2.59626e-12
-5.06133e-13
-8.47556e-13
-1.23484e-12
-7.01896e-13
-7.08383e-14
9.14933e-14
2.0864e-12
4.74541e-12
3.10688e-12
5.54727e-13
3.17521e-15
-3.60808e-14
-1.98504e-14
7.08727e-14
7.58426e-13
1.80315e-13
-4.7251e-13
-2.74694e-11
-3.14489e-11
-1.40457e-12
2.0783e-13
7.18869e-13
2.3793e-13
3.22385e-14
-3.21097e-17
-6.11611e-14
-1.01492e-13
-9.7897e-15
9.13289e-14
1.13406e-12
3.62918e-12
9.12322e-12
1.4052e-11
1.43813e-11
1.45474e-11
1.77137e-11
5.766e-12
-9.19887e-13
-3.02176e-11
-2.03123e-11
-1.26435e-12
-4.55887e-13
-8.27891e-13
-5.81709e-13
-2.85583e-14
4.19235e-13
5.68742e-12
1.15235e-11
6.13607e-12
4.94056e-13
-4.66692e-14
-1.07372e-12
-1.07889e-12
-8.57173e-15
1.33758e-12
1.57179e-12
-1.25704e-12
-7.40611e-11
-9.61414e-11
-5.88202e-12
5.81081e-13
2.80916e-12
1.33982e-12
3.52366e-13
5.20175e-14
-5.2563e-15
-1.31773e-13
-1.31943e-13
4.58385e-14
2.81195e-12
1.1342e-11
2.38962e-11
3.07121e-11
2.63546e-11
2.45808e-11
3.00212e-11
9.75445e-12
-2.46613e-12
-1.03604e-10
-9.00048e-11
-5.84935e-12
-1.73311e-13
-2.5235e-13
-4.57384e-13
-3.25929e-14
7.77389e-13
1.0791e-11
2.21607e-11
1.20552e-11
8.01237e-13
-2.74276e-13
-4.31981e-12
-5.3741e-12
-5.8321e-13
9.98868e-13
6.97924e-12
-3.87807e-13
-1.15404e-10
-2.53049e-10
-2.95019e-11
2.98255e-13
5.08386e-12
3.03592e-12
9.74909e-13
3.33826e-13
1.64312e-14
-7.69725e-14
-5.98967e-13
-2.03069e-16
3.91239e-12
2.42446e-11
5.14844e-11
6.29909e-11
4.95737e-11
5.01093e-11
6.94799e-11
2.72798e-11
-1.85238e-12
-2.24438e-10
-3.05011e-10
-3.85724e-11
-3.28882e-13
-3.65436e-15
-1.78767e-13
-7.56182e-14
5.99764e-13
1.38321e-11
3.3668e-11
2.04476e-11
1.56337e-12
-4.66938e-13
-9.65412e-12
-1.56407e-11
-4.06036e-12
3.23377e-13
1.68273e-11
4.10097e-13
-7.69121e-11
-4.83088e-10
-9.8125e-11
2.01139e-14
7.58243e-12
6.41867e-12
2.00938e-12
9.11096e-13
4.85747e-13
-6.14587e-16
-6.92724e-13
-4.16112e-14
4.232e-12
3.63111e-11
7.92476e-11
8.77994e-11
6.92465e-11
9.32241e-11
1.52882e-10
6.58564e-11
-1.68952e-12
-3.87603e-10
-8.01433e-10
-1.83461e-10
-1.97729e-12
1.89061e-13
1.18641e-14
-6.98997e-16
6.21382e-13
1.48643e-11
3.64592e-11
2.04502e-11
7.53216e-13
-2.17458e-12
-2.11839e-11
-3.48459e-11
-1.62834e-11
-5.56028e-14
1.70645e-11
1.13555e-11
-1.49613e-11
-5.33967e-10
-1.96538e-10
-6.66541e-13
6.55488e-12
9.41514e-12
3.31893e-12
9.76667e-13
1.2153e-12
3.3128e-13
-2.2415e-14
-7.70055e-15
4.14104e-12
3.67733e-11
6.9606e-11
6.94808e-11
7.15277e-11
1.69615e-10
3.52026e-10
1.52647e-10
-2.6135e-12
-6.30188e-10
-1.59806e-09
-5.24825e-10
-1.02523e-11
1.83554e-12
2.92694e-12
7.46091e-13
2.82903e-12
2.2742e-11
4.4821e-11
2.04703e-11
1.19673e-13
-1.36864e-11
-6.75281e-11
-7.93598e-11
-4.04246e-11
-3.16337e-12
4.84563e-12
2.69027e-11
-4.58342e-13
-2.85678e-10
-2.37812e-10
-3.55109e-12
4.40221e-12
8.69996e-12
2.38853e-12
1.45804e-13
3.65901e-13
3.07894e-12
2.87384e-12
1.20403e-12
8.44644e-12
2.95523e-11
2.76317e-11
1.89682e-11
4.77798e-11
2.91841e-10
7.37809e-10
2.90102e-10
-6.69658e-12
-1.04189e-09
-2.53481e-09
-9.79251e-10
-2.80673e-11
6.20668e-12
2.40143e-11
1.38761e-11
1.70994e-11
4.53817e-11
7.32001e-11
3.1795e-11