/*--------------------------------*- C++ -*----------------------------------*\
| =========                 |                                                 |
| \\      /  F ield         | OpenFOAM: The Open Source CFD Toolbox           |
|  \\    /   O peration     | Version:  5.0                                   |
|   \\  /    A nd           | Web:      www.OpenFOAM.org                      |
|    \\/     M anipulation  |                                                 |
\*---------------------------------------------------------------------------*/
FoamFile
{
    version     2.0;
    format      ascii;
    class       volScalarField;
    location    "50.4676134421789371";
    object      VVW;
}
// * * * * * * * * * * * * * * * * * * * * * * * * * * * * * * * * * * * * * //

dimensions      [0 3 -3 0 0 0 0];

internalField   nonuniform List<scalar> 
60000
(
-1.19945e-13
-1.79259e-13
-9.04952e-14
-3.04496e-15
2.71898e-16
2.80689e-16
1.72677e-15
7.53562e-16
4.97051e-19
-4.84884e-16
-7.20891e-15
-2.72807e-14
-1.11458e-14
-4.41204e-15
5.28192e-15
5.34313e-14
3.56909e-15
6.89594e-14
3.39771e-13
3.4892e-13
1.9561e-13
5.59611e-15
-1.10655e-14
-1.21267e-14
-8.73478e-14
-2.96214e-13
-1.86882e-13
-2.40244e-14
-8.35161e-15
-2.00729e-14
3.2184e-14
1.67914e-13
3.07794e-13
2.46851e-13
6.95276e-14
6.03681e-16
4.56544e-15
-1.91003e-14
-4.43011e-14
-7.16609e-14
-8.5639e-12
-4.90962e-12
-3.63201e-13
5.26296e-14
1.20691e-12
2.3155e-13
7.56611e-15
1.68739e-14
-3.9139e-16
-4.79763e-13
-3.92395e-12
-4.37863e-12
-4.43924e-13
8.48354e-15
2.43526e-13
7.08929e-13
3.45726e-12
6.61282e-12
1.82874e-12
1.25686e-12
2.14317e-12
-2.84355e-12
-7.42825e-13
-8.47515e-12
-3.70527e-11
-3.60957e-11
-1.31301e-11
-1.87622e-12
-2.0929e-13
-4.09062e-13
7.39601e-14
2.72967e-14
1.39769e-12
5.00712e-12
6.6141e-12
6.52255e-13
2.99961e-13
-1.00369e-13
-1.21476e-12
-6.56218e-12
-2.20038e-11
-1.8276e-11
-1.15119e-12
1.69251e-13
4.06494e-12
2.9633e-12
1.11532e-13
1.84744e-13
-6.76546e-14
-4.13971e-13
-9.19669e-12
-1.95611e-11
-5.56525e-12
-1.33886e-16
1.90679e-12
1.21952e-11
3.54594e-11
4.65334e-11
7.38949e-12
1.98815e-11
1.21477e-11
-7.63754e-11
-1.14535e-11
-7.32983e-11
-2.08168e-10
-1.19314e-10
-4.73798e-12
2.02717e-12
1.41558e-13
3.19439e-13
6.04093e-13
2.1006e-13
8.63672e-14
2.37283e-12
1.1201e-11
6.21422e-12
2.46716e-13
-1.34015e-12
-1.607e-12
-3.56809e-12
-4.27284e-11
-5.63353e-11
-4.96489e-12
2.95518e-13
7.05881e-12
8.01055e-12
1.907e-12
4.86044e-13
-4.48236e-15
-1.70515e-14
-1.23457e-11
-4.88486e-11
-2.17832e-11
-3.13076e-14
5.68476e-12
3.77509e-11
8.9158e-11
9.42095e-11
1.24265e-11
6.6959e-11
3.20497e-11
-3.13042e-10
-3.52453e-11
-2.70046e-10
-5.49597e-10
-1.70618e-10
4.81577e-11
2.89374e-12
1.60706e-11
2.16792e-11
7.60709e-12
1.08653e-13
6.21042e-13
9.01076e-13
1.58525e-11
1.79913e-11
1.6484e-13
1.1009e-12
-1.09623e-11
-1.48423e-15
-4.75784e-11
-1.76653e-10
-3.74256e-11
1.20893e-14
8.8656e-12
1.07154e-11
5.02167e-12
6.25473e-14
9.30325e-17
-1.43134e-12
-1.15838e-11
-1.3531e-10
-1.0823e-10
-3.51695e-12
8.63098e-12
9.89146e-11
2.00085e-10
1.54705e-10
1.85709e-11
1.45707e-10
2.42466e-10
-7.72379e-10
-1.23368e-10
-6.98706e-10
-1.35058e-09
-3.56949e-10
1.00794e-10
2.45248e-12
6.09489e-11
9.21187e-11
3.55397e-11
3.73751e-12
9.48041e-14
2.78796e-14
1.47465e-11
4.31802e-11
5.27217e-12
8.43368e-12
-8.20429e-12
-8.17038e-12
-2.85945e-12
-2.43229e-10
-1.57671e-10
-1.27264e-12
5.28581e-12
1.02199e-11
5.96807e-12
7.38417e-13
1.05931e-13
-1.29363e-12
-2.19041e-12
-2.44099e-10
-4.02519e-10
-6.45071e-11
2.36389e-12
2.21545e-10
4.73353e-10
2.56988e-10
2.5908e-11
1.54923e-10
6.79406e-10
-1.25187e-09
-3.55219e-10
-1.20148e-09
-2.72541e-09
-7.2358e-10
1.56925e-10
1.19562e-11
5.55071e-11
1.35232e-10
8.19355e-11
1.74617e-11
1.12757e-12
1.43455e-13
5.43051e-12
3.85047e-11
2.12961e-11
9.40597e-12
3.52882e-11
-1.2902e-11
-5.56679e-12
-8.78336e-11
-2.48224e-10
-2.0295e-11
-1.17239e-12
4.89772e-12
3.35704e-12
2.34517e-12
1.99365e-12
1.36076e-12
-2.49295e-14
-2.69095e-10
-8.80877e-10
-3.05644e-10
2.01386e-12
4.03171e-10
1.07232e-09
4.39594e-10
1.73413e-11
1.04692e-10
8.75016e-10
-1.2508e-09
-6.86193e-10
-1.50862e-09
-4.02554e-09
-1.05627e-09
1.56912e-10
2.12787e-11
3.13575e-11
1.02277e-10
7.94355e-11
2.7427e-11
6.06378e-12
2.94951e-12
6.96633e-12
2.18422e-11
1.96892e-11
2.1464e-12
6.13783e-11
5.90813e-11
4.04793e-11
-1.5432e-12
-1.11672e-10
-2.51062e-11
-2.1939e-12
-2.28154e-13
1.79615e-13
3.17556e-13
2.86216e-12
2.54096e-12
-1.70835e-14
-2.33192e-10
-1.28485e-09
-5.35179e-10
2.15661e-11
6.88432e-10
1.86906e-09
7.15063e-10
9.12978e-12
-1.36008e-11
5.06427e-10
-1.01021e-09
-1.00136e-09
-1.51284e-09
-4.76103e-09
-1.39251e-09
3.16228e-11
1.75157e-11
1.86112e-11
6.37291e-11
3.77526e-11
5.69442e-13
-1.90734e-11
-1.6981e-11
6.80455e-12
2.55466e-11
1.43832e-11
1.80663e-13
3.93646e-11
1.14915e-10
1.18132e-10
2.74656e-12
-1.21665e-11
-2.91761e-12
-1.02676e-11
-2.5478e-12
1.21359e-14
2.48184e-13
4.28547e-14
2.87194e-14
-1.03277e-12
-2.04214e-10
-1.15021e-09
-2.48169e-10
3.42343e-11
1.01868e-09
2.40208e-09
9.30767e-10
5.31477e-12
-1.77594e-10
-3.2221e-10
-1.07036e-09
-9.82951e-10
-1.36905e-09
-4.81378e-09
-1.87462e-09
-2.2318e-10
4.00517e-12
1.53985e-11
3.98248e-11
9.61907e-12
-9.57028e-12
-3.4591e-11
-7.97928e-11
-4.64247e-11
3.74162e-11
3.11155e-11
9.63545e-13
1.34803e-11
8.05136e-11
9.80248e-11
3.35429e-11
-1.36023e-12
-1.20468e-11
-5.65045e-11
-1.06377e-11
8.7522e-13
5.39389e-13
2.74738e-13
2.49399e-12
-8.40519e-12
-2.43069e-10
-6.3808e-10
2.89017e-10
6.1809e-12
1.34062e-09
2.38395e-09
8.78427e-10
7.64142e-12
-2.24797e-10
-1.13924e-09
-1.36318e-09
-6.86684e-10
-1.11222e-09
-4.20975e-09
-2.5336e-09
-4.40134e-10
-1.61041e-12
1.64236e-11
2.49268e-11
-7.68337e-13
-3.14503e-12
-1.35998e-11
-8.19835e-11
-1.14964e-10
1.56807e-11
7.51747e-11
2.04436e-11
4.84615e-15
2.0717e-11
1.19197e-11
3.52771e-11
-8.96416e-12
-1.20397e-10
-2.25637e-10
-5.35212e-11
3.58849e-12
8.24895e-13
3.95039e-15
2.93763e-12
-1.84536e-11
-3.90031e-10
-5.22119e-10
3.08828e-10
1.85972e-11
1.67817e-09
2.20817e-09
6.46766e-10
7.83574e-12
-8.97649e-11
-8.66566e-10
-1.07464e-09
-3.3454e-10
-5.47062e-10
-3.282e-09
-2.81328e-09
-4.41439e-10
-2.55552e-13
1.75894e-11
1.43796e-11
-7.82721e-13
-7.97556e-13
-5.33076e-13
-5.74142e-11
-1.40211e-10
-2.8383e-11
9.1063e-11
6.2764e-11
2.01861e-11
2.62395e-12
4.32896e-11
9.32232e-13
-2.34725e-12
-3.24024e-10
-4.63682e-10
-1.2118e-10
2.92673e-12
4.85624e-13
2.12945e-14
3.02549e-12
-9.44968e-12
-5.42067e-10
-7.31333e-10
1.06576e-10
8.03192e-11
1.77179e-09
1.816e-09
1.78391e-10
-2.6967e-11
3.14613e-11
6.67354e-10
7.88178e-10
1.20024e-10
-9.50456e-11
-2.32597e-09
-2.4386e-09
-3.03347e-10
-2.40695e-13
1.78675e-11
6.11584e-12
-6.05857e-13
-2.73382e-11
-9.83327e-12
-4.10004e-11
-1.88517e-10
-8.56446e-11
6.0331e-11
5.90335e-11
3.99752e-11
5.48899e-11
2.35068e-10
6.34614e-11
1.25533e-11
-3.13311e-10
-4.78339e-10
-1.65817e-10
-6.52891e-12
2.26307e-13
8.04479e-13
8.74381e-12
1.86489e-11
-6.42475e-10
-1.14383e-09
-4.61624e-11
4.41859e-11
1.32094e-09
9.22456e-10
-6.25557e-10
-2.05022e-10
1.89372e-12
1.61238e-09
3.45435e-09
7.38071e-10
-8.07075e-12
-1.67647e-09
-1.66313e-09
-1.55077e-10
-2.7944e-13
1.55242e-11
3.42243e-13
2.09492e-12
-9.05252e-11
-7.64634e-11
-2.2539e-11
-2.78608e-10
-1.97785e-10
2.32114e-11
2.59537e-11
1.43571e-11
7.57463e-11
2.77083e-10
2.05018e-10
2.86076e-12
-4.17839e-11
-1.87757e-10
-1.37539e-10
-4.49126e-11
-2.1455e-12
2.3357e-12
3.76259e-13
8.68034e-11
-4.46502e-10
-1.74094e-09
-3.68671e-10
1.22172e-12
6.59233e-10
-1.15313e-10
-1.54975e-09
-6.03899e-10
6.143e-11
9.88106e-10
3.9302e-09
1.1119e-09
-1.21317e-12
-7.6317e-10
-7.05529e-10
-6.67116e-11
2.743e-14
4.44784e-12
4.47568e-12
4.84613e-11
-6.45209e-11
-1.44373e-10
-6.25868e-12
-3.87938e-10
-3.95786e-10
-3.77401e-11
7.45624e-12
2.19971e-13
3.7288e-11
1.61492e-10
1.89812e-10
2.69361e-12
4.24913e-11
9.19882e-12
-5.44213e-11
-5.69703e-11
-2.83811e-11
-5.83079e-12
2.25585e-11
2.21863e-11
1.45354e-10
-1.6095e-09
-9.77709e-10
8.31863e-12
6.54426e-11
-9.07033e-10
-2.21603e-09
-8.05104e-10
5.08222e-11
7.30488e-10
3.24755e-09
1.26726e-09
1.79342e-12
-1.83249e-10
-3.31378e-10
-8.99661e-11
-2.19847e-12
1.65684e-12
2.44894e-11
1.17489e-10
1.09663e-10
-6.36778e-11
-2.98126e-12
-5.70999e-10
-8.11772e-10
-1.559e-10
2.5493e-13
1.05821e-11
4.06113e-12
7.45681e-11
1.34824e-10
1.62685e-11
1.08514e-11
3.60986e-11
2.08306e-11
-1.20344e-11
-7.7423e-12
-4.97783e-12
7.03055e-12
1.00721e-12
2.83606e-10
-4.28297e-10
-1.40519e-09
-1.3535e-10
-1.83548e-10
-1.12271e-09
-1.35701e-09
-3.79136e-10
1.21934e-12
9.17845e-10
3.08253e-09
1.42947e-09
1.90122e-11
-1.08608e-10
-4.6576e-10
-2.83168e-10
-3.07481e-11
1.18488e-11
3.68413e-11
1.03585e-10
1.17669e-10
1.51441e-11
-9.55412e-12
-6.95927e-10
-1.60953e-09
-5.71308e-10
-2.84945e-12
2.97999e-11
1.11478e-11
1.11067e-11
6.45623e-11
3.37353e-12
-3.05503e-12
1.48287e-11
8.07147e-11
2.48176e-11
7.95609e-14
-2.99145e-12
-1.10165e-14
2.14938e-14
1.49728e-10
8.83573e-11
-1.11219e-09
-1.37661e-10
-2.14225e-10
1.14142e-11
-1.47839e-10
-1.32235e-10
1.66944e-12
7.94809e-10
2.40263e-09
1.14061e-09
6.92958e-12
-1.96964e-10
-8.32333e-10
-4.39794e-10
-3.97475e-11
6.22548e-12
3.52946e-11
1.65019e-10
1.68159e-10
9.96683e-12
-1.19152e-11
-6.23385e-10
-2.16203e-09
-1.60541e-09
-1.30518e-10
1.89231e-12
3.90566e-11
3.66251e-13
4.55794e-12
7.4594e-16
-6.05225e-12
-5.32263e-13
6.10969e-11
1.42389e-11
2.4952e-11
2.04641e-11
-6.36214e-12
1.00598e-11
7.91752e-11
8.7502e-11
-2.62149e-10
-1.43396e-12
1.0883e-10
4.17164e-10
-1.99121e-10
-6.60042e-11
-5.14528e-11
4.50653e-10
1.39077e-09
4.7748e-10
7.92236e-12
-1.79944e-10
-3.94321e-10
-6.09782e-11
-3.26253e-13
5.99401e-12
1.28946e-10
5.24918e-10
5.6853e-10
2.31546e-11
1.07084e-10
-3.27248e-10
-1.36398e-09
-1.67343e-09
-5.08425e-10
-6.94976e-12
4.53332e-12
-2.03122e-13
-5.8155e-13
-3.23526e-13
-5.767e-12
-2.64467e-11
1.91416e-10
2.04029e-10
4.58674e-11
4.62658e-10
1.2431e-10
-4.35185e-11
-3.80158e-12
3.65134e-11
3.00946e-11
7.30137e-12
1.63123e-10
-1.59939e-11
-3.08065e-10
-8.01126e-11
-4.67608e-11
-4.88827e-11
3.3948e-10
1.12382e-10
2.62711e-11
5.55729e-11
1.72409e-11
3.63431e-12
-1.43928e-12
-1.22866e-10
-2.62408e-10
3.17224e-10
6.37106e-10
4.48625e-11
2.73853e-10
1.54222e-10
-5.29974e-10
-8.14373e-10
-5.71764e-10
-1.34146e-10
-6.71498e-12
-9.00499e-11
-1.35868e-10
-3.32286e-11
-7.112e-11
-1.63701e-10
6.47934e-10
7.56365e-10
8.98145e-12
1.40664e-09
1.08094e-09
-5.0762e-10
-2.95604e-10
-1.8008e-11
1.66678e-13
1.82919e-11
3.75891e-11
-1.35987e-11
-1.03912e-10
-8.15182e-11
-5.49782e-13
-6.63379e-11
-5.12593e-11
1.5665e-11
5.25991e-13
1.70579e-11
-4.5825e-12
-2.85076e-11
-9.22779e-11
-2.31546e-10
-1.06378e-10
6.00937e-10
6.87222e-10
2.83444e-11
3.28586e-10
4.01255e-10
-4.74491e-11
-1.6932e-10
-1.43931e-10
-8.84021e-11
-5.8372e-11
-3.95185e-11
-2.59986e-10
-2.08436e-10
-1.13428e-11
-1.4683e-10
5.18443e-10
6.40731e-10
6.5714e-14
1.41233e-09
2.52245e-09
-3.17401e-10
-9.23964e-10
-7.76739e-11
-2.98336e-11
-5.93668e-11
-3.15049e-11
9.70467e-12
6.79981e-11
8.32904e-11
2.4823e-11
8.95304e-15
-1.81613e-11
-3.26606e-11
-4.01393e-12
-3.62999e-14
-5.17267e-12
-3.32119e-11
-8.68244e-11
-1.48626e-10
-6.2221e-11
2.9775e-10
2.81876e-10
5.44956e-11
1.10096e-09
8.75698e-10
7.14614e-11
-1.66285e-11
-2.38738e-12
-2.1334e-12
-1.45882e-12
-1.76746e-11
-4.76662e-11
-5.62079e-11
-3.44505e-12
-8.54433e-11
-3.28703e-11
6.7289e-11
5.77695e-12
7.70238e-10
1.73082e-09
1.86966e-10
-5.72875e-10
-3.81592e-12
-1.76557e-10
-1.03029e-10
-1.78758e-11
1.16074e-11
1.27038e-10
1.96221e-10
5.91765e-11
4.34137e-12
7.37933e-11
1.04961e-10
3.97486e-11
5.42178e-12
7.13177e-11
1.41235e-11
-1.01167e-10
-1.22002e-10
-9.96225e-11
-1.96509e-11
7.68586e-11
4.12004e-11
1.47757e-09
2.3815e-09
5.95528e-10
-3.15412e-13
-1.39316e-10
-4.63806e-10
-2.99962e-10
-2.94798e-11
3.75632e-13
1.55283e-12
9.56926e-13
-6.37283e-11
-3.31793e-10
-2.08311e-10
-6.06658e-13
1.32402e-10
5.03915e-10
-1.54767e-10
-5.58164e-10
-1.05577e-10
-5.56027e-12
-3.13716e-11
-8.88829e-12
5.1913e-11
3.54746e-12
2.07663e-11
2.77651e-11
4.1073e-12
1.98021e-12
4.0548e-12
1.00738e-11
1.34683e-10
2.33415e-10
2.71281e-12
-3.91258e-10
-4.73827e-10
-2.41137e-10
-6.32905e-11
1.31374e-12
1.19011e-11
4.09221e-10
9.01707e-10
3.70184e-10
-2.3665e-11
-7.41092e-12
-1.65453e-10
-1.73448e-10
1.08529e-13
8.27147e-12
3.58585e-13
1.59607e-11
-1.19049e-10
-4.54157e-10
-2.37134e-10
-4.11934e-12
1.12943e-10
7.48327e-10
3.57713e-10
-1.88776e-10
-1.24988e-10
-9.16708e-11
-1.58702e-10
-3.16286e-11
1.24066e-10
4.17543e-11
1.55224e-12
4.02903e-11
9.06023e-11
1.51503e-10
2.17533e-10
2.52773e-10
2.20536e-10
8.98435e-11
-1.35521e-10
-3.36438e-10
-3.10481e-10
-9.39244e-11
-2.07678e-15
-4.69024e-12
1.67932e-10
5.36169e-10
4.90399e-10
9.50184e-11
-5.24703e-14
-2.42779e-11
-3.9028e-11
-5.35608e-12
-1.17722e-12
2.48346e-11
6.63092e-13
6.02134e-11
8.37927e-11
-1.17767e-10
-1.06248e-10
-8.2046e-12
-1.24925e-10
3.71256e-10
6.9846e-10
2.48783e-10
6.42662e-12
-8.10172e-12
-2.93655e-11
-1.11672e-10
-1.44132e-10
-6.02077e-11
-2.53601e-12
5.48318e-12
1.23775e-10
4.14953e-10
5.47528e-10
3.24924e-10
8.70468e-11
2.30011e-11
-2.82279e-12
-2.07439e-10
-4.94617e-10
-2.27178e-10
-2.69008e-11
-3.38997e-10
2.13693e-10
6.86501e-10
2.12474e-10
3.49159e-12
4.81999e-11
-9.62254e-11
-8.80667e-11
-2.14898e-12
-1.15845e-16
-1.35088e-14
-6.33909e-15
1.59906e-14
6.62608e-15
8.30259e-16
3.98909e-15
7.46493e-15
-5.17586e-14
-5.85937e-14
-2.81332e-14
-1.0738e-14
-9.97471e-15
-1.99439e-15
-1.24503e-15
-2.17004e-15
-3.04622e-16
-7.96007e-17
4.81074e-16
1.1164e-15
5.08271e-14
3.29289e-14
-1.72882e-16
-1.14535e-13
-3.05969e-13
-3.2883e-13
-2.75947e-13
-2.92707e-13
-1.49463e-13
-1.66873e-14
1.22512e-16
3.78133e-15
1.0451e-14
1.65574e-15
1.8269e-14
8.62352e-14
2.45763e-14
5.67179e-16
6.05098e-16
2.1298e-16
-9.34663e-13
-8.73342e-13
-1.46137e-13
3.1591e-16
5.99358e-14
3.53007e-13
5.67256e-13
2.9932e-13
-1.22554e-13
-1.16507e-13
-1.00296e-13
-9.07883e-13
-2.78309e-12
-3.73364e-12
-4.21639e-12
-7.31911e-12
-1.32947e-11
-9.653e-12
3.6011e-12
1.26473e-12
1.12721e-12
5.81494e-13
-1.15021e-14
-3.62656e-13
-4.60537e-14
-6.32796e-13
-1.51609e-14
-1.15784e-12
-2.54614e-13
-4.08475e-13
1.54198e-12
5.24857e-12
3.4716e-12
1.11604e-13
3.5528e-13
3.96149e-14
1.59628e-12
1.43445e-13
-9.3998e-14
-4.81125e-13
-1.04041e-11
-6.86991e-12
-7.35628e-13
-1.65167e-13
-2.74053e-12
-2.89334e-12
2.32674e-12
1.13989e-12
9.20427e-14
-1.3663e-12
-2.75755e-12
-9.55907e-14
-5.92966e-12
-8.11723e-12
-3.67248e-13
2.55814e-12
-2.91627e-11
-5.67466e-11
-8.59162e-12
3.5119e-12
3.2762e-11
4.80249e-11
-3.40363e-12
-2.80537e-13
-1.74828e-11
-2.75461e-11
-4.37188e-12
-8.17049e-14
-4.25276e-14
4.46631e-13
9.58451e-12
2.19351e-11
1.55282e-11
2.04636e-12
2.12301e-12
3.62465e-12
3.45312e-14
1.78727e-13
-3.13398e-13
-4.46862e-12
-3.67824e-11
-2.65189e-11
-1.6117e-12
-1.70734e-13
-6.47758e-12
-1.06924e-11
3.64399e-12
1.84991e-12
4.00317e-12
-2.49371e-12
-1.48974e-11
-9.32455e-13
-6.5902e-12
8.66346e-13
5.15142e-11
9.68269e-11
4.48612e-11
-5.98876e-11
-3.75492e-11
2.76211e-14
1.98678e-10
3.46728e-10
-8.93396e-12
-1.58196e-12
-8.98916e-11
-9.38997e-11
-7.58013e-12
1.58117e-13
1.59112e-12
1.37228e-12
2.31312e-11
4.12255e-11
2.11653e-11
4.25887e-13
1.60801e-11
2.6858e-11
5.60687e-12
1.53747e-13
-7.91942e-17
-6.12326e-12
-7.48441e-11
-9.22089e-11
-6.7213e-12
2.68463e-13
-9.86837e-12
-2.73374e-11
-2.1829e-12
4.31944e-12
1.72381e-11
3.24367e-11
-3.14773e-11
-1.05179e-11
-5.88997e-12
9.94678e-12
1.55545e-10
2.82869e-10
1.74334e-10
-6.35174e-11
-1.01333e-10
-5.02605e-13
4.02058e-10
1.24632e-09
9.59263e-11
-1.19629e-11
-3.13191e-10
-3.17411e-10
-2.43529e-11
7.52933e-13
9.65604e-12
1.29994e-14
2.52448e-11
4.84201e-11
2.141e-11
6.19235e-14
4.37674e-11
9.88919e-11
3.84306e-11
1.23093e-13
1.836e-12
-7.03608e-13
-7.24429e-11
-2.59077e-10
-4.00876e-11
2.81121e-13
-8.46388e-12
-5.06004e-11
-3.18436e-11
3.97042e-12
1.90254e-11
1.62744e-10
1.58125e-11
-4.01562e-11
-3.34011e-13
1.86319e-11
3.28472e-10
6.08314e-10
3.76612e-10
-6.20064e-11
-2.40144e-10
-7.66936e-13
2.58617e-10
2.51023e-09
5.97061e-10
-6.72504e-11
-7.26523e-10
-8.99154e-10
-1.01413e-10
1.93339e-14
1.4942e-11
3.15375e-12
1.05697e-11
3.03263e-11
1.06671e-11
1.26095e-12
5.63398e-11
1.93186e-10
1.31422e-10
6.28398e-12
1.47293e-11
-4.66121e-13
-9.96644e-12
-4.2211e-10
-1.48238e-10
5.5338e-15
5.33228e-12
-5.53179e-11
-6.37912e-11
-1.04893e-11
5.23387e-12
2.25613e-10
2.99698e-10
1.29855e-12
-2.19291e-12
3.39645e-11
5.04293e-10
8.91767e-10
4.53037e-10
-1.53283e-10
-3.96886e-10
-1.11736e-11
-9.87586e-11
3.23113e-09
1.40874e-09
-1.89902e-10
-1.15919e-09
-1.70794e-09
-2.31102e-10
1.45399e-12
7.12023e-12
3.21688e-12
1.79553e-12
3.81671e-12
2.30674e-14
2.73931e-12
4.94482e-11
2.24246e-10
2.81437e-10
5.58556e-11
2.07733e-11
3.1427e-11
-2.54752e-13
-2.84829e-10
-3.05307e-10
-1.34301e-13
3.57238e-11
-1.93237e-11
-7.10955e-11
-1.46851e-11
-1.22359e-11
7.27176e-11
5.43727e-10
3.82282e-10
3.03708e-11
6.09697e-11
6.39211e-10
8.83795e-10
2.7352e-10
-4.38169e-10
-5.53896e-10
-2.42916e-11
-5.17477e-10
2.63813e-09
1.76615e-09
-3.69568e-10
-1.40624e-09
-2.28647e-09
-2.71798e-10
1.68893e-11
7.02794e-13
2.55828e-13
1.34817e-12
-5.40228e-12
-1.17346e-12
-7.92573e-11
-9.92683e-11
1.39284e-10
3.50695e-10
1.76766e-10
1.50021e-12
1.10342e-10
3.77554e-11
-5.28194e-11
-2.54016e-10
-3.89016e-13
9.27353e-11
7.11253e-11
-5.75456e-11
-2.16015e-12
-8.89109e-11
-1.7031e-10
2.25023e-10
7.53915e-10
2.14059e-10
7.74165e-11
6.86449e-10
6.75962e-10
-1.02774e-10
-7.41972e-10
-6.01314e-10
-2.37295e-11
-1.03244e-09
4.18798e-10
9.26009e-10
-4.84842e-10
-1.42086e-09
-2.06448e-09
-3.8216e-11
6.37793e-11
1.26916e-12
4.8315e-13
1.24851e-13
-2.1619e-11
-3.02887e-14
-1.86536e-10
-4.85667e-10
-1.79143e-10
2.76143e-10
2.72649e-10
2.38017e-11
1.0495e-10
5.0113e-11
1.56883e-12
-7.26675e-11
-1.48228e-13
1.04463e-10
1.1637e-10
1.13126e-11
-9.74108e-14
-2.304e-10
-5.91496e-10
-3.81594e-10
3.89872e-10
2.76179e-10
1.06789e-10
8.28541e-10
5.75837e-10
-1.67518e-10
-6.24012e-10
-4.65926e-10
-1.11091e-11
-1.59777e-09
-2.97442e-09
-9.45913e-10
-3.99107e-10
-1.01585e-09
-7.26099e-10
3.8026e-10
1.02541e-10
5.11015e-12
2.08793e-12
-1.74768e-12
-4.41271e-11
-1.35688e-12
-2.12522e-10
-7.12682e-10
-5.55243e-10
5.07365e-11
2.5556e-10
9.92964e-11
1.28619e-11
1.36718e-12
6.64004e-12
-1.96238e-12
-4.01356e-11
-1.27067e-10
-5.68963e-11
5.59614e-11
8.16734e-16
-9.54364e-11
-9.36028e-10
-1.21199e-09
-2.8256e-10
1.51114e-10
1.22842e-10
1.03765e-09
1.2786e-09
7.21215e-10
-2.27437e-10
-4.29634e-10
-7.14308e-14
-1.8528e-09
-5.53525e-09
-2.63456e-09
-1.68776e-10
-5.19546e-11
8.10028e-10
3.64825e-10
4.91426e-11
4.72598e-12
5.6762e-12
-5.92322e-12
-8.60414e-11
-5.81836e-12
-2.72867e-10
-8.69768e-10
-6.82336e-10
-1.07863e-10
1.35928e-10
1.2296e-10
3.43682e-11
2.89938e-10
8.31423e-11
1.67719e-12
-2.7303e-10
-5.71794e-10
-2.89396e-10
3.57627e-11
4.03055e-12
2.31164e-11
-5.39331e-10
-2.02203e-09
-1.40142e-09
3.56159e-11
7.51289e-11
1.40981e-09
2.78624e-09
2.05309e-09
-4.26228e-10
-5.86506e-10
-9.08313e-12
-1.33223e-09
-5.03227e-09
-2.54809e-09
8.28258e-11
6.40891e-10
9.1167e-10
-1.08196e-11
3.93008e-12
6.79141e-12
1.51694e-11
-9.49345e-12
-1.61336e-10
-3.14534e-11
-3.35808e-10
-1.21822e-09
-8.54433e-10
-1.39483e-10
4.39109e-11
5.53809e-11
1.50309e-10
8.59837e-10
4.02956e-10
2.53601e-11
-4.38372e-10
-7.09427e-10
-2.30018e-10
2.71505e-11
1.19484e-11
4.36779e-12
-1.48324e-10
-2.01648e-09
-3.27733e-09
-3.63066e-10
9.06117e-12
1.83053e-09
4.08961e-09
2.30602e-09
-1.28261e-09
-6.87012e-10
-1.27371e-11
-1.80147e-11
-1.52363e-09
-9.63978e-10
1.24966e-10
4.8317e-10
1.94796e-10
-7.85881e-11
2.47443e-11
1.3019e-11
2.93743e-11
1.67474e-11
-1.91025e-10
-1.14547e-10
-2.21386e-10
-1.57532e-09
-1.34612e-09
-2.32747e-10
1.68583e-11
7.89531e-12
1.35192e-10
7.5186e-10
5.09295e-10
3.37284e-11
-2.08785e-10
-3.40965e-10
-5.89421e-11
1.63316e-11
7.87829e-12
2.87979e-12
-6.15745e-12
-1.10369e-09
-4.59917e-09
-1.43954e-09
3.19913e-11
1.78696e-09
4.14397e-09
1.17794e-09
-1.76845e-09
-6.37829e-10
-1.68158e-12
8.97335e-10
2.05391e-09
6.11502e-10
4.58349e-11
1.52778e-10
1.50087e-10
8.77759e-11
3.76018e-11
1.97612e-11
3.16647e-11
6.96711e-11
9.07047e-12
-1.2157e-10
-4.42142e-11
-1.39477e-09
-1.91422e-09
-5.20252e-10
1.80206e-12
4.49837e-12
6.97917e-11
3.62389e-10
1.73298e-10
1.32198e-10
3.42616e-10
8.12125e-11
-1.72462e-12
3.37829e-13
4.76892e-14
1.68817e-12
8.04857e-16
-3.1229e-10
-3.54693e-09
-2.43289e-09
1.42011e-10
1.11015e-09
2.52234e-09
2.15492e-11
-1.32683e-09
-4.83281e-10
6.58389e-14
7.85151e-10
2.85237e-09
1.52997e-09
1.01583e-10
7.22455e-11
7.16476e-11
-1.80353e-10
-1.92424e-10
-4.36567e-11
3.95537e-11
6.38895e-11
9.17694e-11
2.26743e-11
-1.89656e-12
-8.09584e-10
-2.08439e-09
-9.22615e-10
-5.61622e-11
1.09506e-11
5.9953e-11
1.98663e-10
2.89696e-11
1.85164e-10
3.5668e-10
1.78528e-10
7.92109e-11
3.35597e-12
4.4946e-12
1.17791e-12
2.84328e-13
-1.2687e-10
-1.93033e-09
-2.21761e-09
9.24891e-11
3.04094e-10
9.31007e-10
-3.58509e-11
-6.46826e-10
-2.87236e-10
3.40381e-12
4.72733e-10
2.17064e-09
1.52128e-09
1.14864e-10
-9.05602e-12
-5.69955e-10
-1.19546e-09
-7.35589e-10
-8.98864e-11
6.40119e-11
5.44716e-12
1.55709e-11
1.43676e-11
-4.58984e-12
-3.88285e-10
-1.66315e-09
-1.26174e-09
-1.71289e-10
9.86245e-12
7.02685e-11
1.07276e-10
9.63403e-12
2.08512e-11
-4.91549e-11
1.63335e-10
2.64081e-10
3.69388e-11
1.36553e-11
2.25318e-11
1.35489e-12
-1.39312e-10
-1.17496e-09
-1.69161e-09
-7.82059e-11
6.28825e-11
7.17024e-10
4.99702e-10
-1.25062e-10
-1.97404e-10
7.48663e-13
2.39745e-10
1.49904e-09
1.09808e-09
2.72304e-11
-1.71233e-10
-1.49007e-09
-1.71147e-09
-6.2188e-10
-6.20186e-11
5.25437e-11
4.53391e-11
2.98717e-11
4.27904e-10
2.43021e-10
-3.0266e-10
-1.06809e-09
-1.37812e-09
-4.49298e-10
-1.87999e-11
5.70734e-11
3.89548e-11
3.44606e-13
-3.67432e-11
-1.693e-10
1.83543e-11
1.9705e-10
6.0034e-11
1.58493e-11
1.18639e-10
6.79843e-11
-2.30236e-10
-8.65069e-10
-8.3966e-10
-3.05343e-12
6.51312e-11
8.19715e-10
6.51692e-10
-6.53683e-11
-1.89953e-10
-5.68165e-12
5.63782e-11
5.57618e-10
3.69198e-10
7.46056e-12
-2.06713e-10
-1.05462e-09
-5.211e-10
-4.99902e-11
-1.39638e-11
3.55073e-11
2.39344e-10
7.09692e-11
6.60828e-10
1.84765e-09
9.08699e-11
-5.73361e-10
-5.95308e-10
-4.27613e-10
-1.33143e-10
1.24105e-11
-2.22513e-11
-4.43766e-13
-7.17448e-11
-2.30835e-10
-1.1872e-10
2.44029e-10
2.28794e-10
5.90202e-12
4.80312e-10
5.62412e-10
-1.74415e-10
-5.65064e-10
-1.76722e-10
7.81515e-12
2.11852e-10
6.17569e-10
2.21789e-10
-9.47756e-11
-5.7901e-11
-1.47939e-14
-1.05633e-11
4.05417e-11
1.87544e-12
6.06271e-11
-7.11714e-11
-1.0661e-10
-1.08667e-11
6.42743e-13
1.13915e-11
-2.47712e-11
1.34992e-10
7.95123e-11
6.20881e-10
3.51367e-09
1.94195e-09
-3.03171e-10
-2.0635e-10
-6.91587e-11
-6.13753e-11
-4.23082e-11
-8.88392e-11
-1.64183e-10
-1.62527e-11
-1.47156e-10
-2.19103e-10
6.29608e-10
8.08654e-10
3.10889e-11
9.28095e-10
2.1535e-09
1.98655e-10
-5.333e-10
-2.14289e-11
2.00213e-11
2.6848e-10
2.04592e-10
2.4275e-11
-7.22782e-12
-4.36878e-12
-7.99356e-14
-8.35554e-12
-1.7386e-12
2.77527e-14
1.59539e-11
2.25566e-11
2.19317e-12
-4.30085e-11
-1.47432e-10
-2.3418e-10
2.98596e-11
3.26385e-10
1.13862e-11
8.52201e-10
3.28285e-09
2.8009e-09
2.70443e-10
-1.31933e-11
-9.60087e-11
-9.48314e-11
-9.80403e-15
-4.51199e-11
-2.4675e-10
-1.38756e-10
-5.57277e-12
7.81286e-12
5.28415e-10
6.35667e-10
1.17584e-10
3.77303e-10
2.47764e-09
1.34376e-09
-1.06539e-09
-1.23196e-10
-2.65482e-10
-3.61971e-10
-3.2722e-12
6.67671e-11
2.64778e-11
1.38833e-12
-6.86755e-13
-3.15485e-11
-3.80189e-11
8.56433e-12
3.72242e-13
1.21461e-11
-4.24293e-11
-1.87493e-10
-2.82513e-10
-2.01075e-10
1.55866e-10
3.20915e-10
2.66123e-12
1.35063e-09
3.3347e-09
1.88052e-09
1.3364e-10
-1.48663e-11
-3.35171e-10
-3.79188e-10
-6.33419e-11
-4.77506e-13
-1.31039e-10
-8.93294e-11
-4.12172e-13
3.09308e-11
1.02271e-10
5.0471e-12
-2.50867e-12
4.34385e-11
8.97932e-10
1.15676e-09
-8.07497e-10
-2.38962e-10
-3.63315e-10
-7.18125e-10
-6.33052e-11
5.37709e-11
7.08302e-12
5.67168e-14
6.2078e-12
-6.56988e-12
-3.80488e-11
-9.4391e-13
1.21062e-12
1.2967e-10
3.20248e-10
2.24039e-10
-3.73376e-11
-1.61234e-10
-9.88952e-11
1.15297e-11
1.61338e-11
8.286e-10
2.86335e-09
2.26076e-09
1.21367e-10
8.5263e-11
-4.70325e-10
-7.80358e-10
-2.63138e-10
-4.32778e-11
-3.25988e-14
-2.21842e-13
1.11454e-13
-8.74066e-12
-1.20933e-10
-1.76378e-10
-2.60982e-11
-9.79306e-12
8.71951e-11
-1.94862e-10
-1.00763e-09
-4.87517e-10
-3.2557e-12
-1.16578e-11
3.91768e-14
1.80643e-11
1.01573e-11
2.98357e-12
1.39529e-11
4.12454e-12
1.036e-12
9.95034e-12
9.66338e-11
2.98841e-10
3.10693e-10
8.04781e-11
-2.2875e-10
-5.54383e-10
-5.14556e-10
-1.01775e-10
1.78109e-12
3.71847e-10
9.8313e-10
6.93926e-10
1.13499e-10
3.21574e-12
-1.3018e-10
-3.48302e-10
-2.36092e-10
-2.11689e-13
2.07541e-12
6.27977e-12
2.63404e-12
-6.77232e-11
-1.00687e-10
-1.08301e-11
-4.60527e-11
-2.76668e-11
3.25525e-10
3.1947e-10
-1.5076e-10
-2.14831e-10
-5.89533e-11
-1.98179e-11
-4.1735e-12
5.09769e-12
3.7707e-12
5.18138e-11
9.62507e-11
9.19702e-11
7.74804e-11
7.9922e-11
7.62028e-11
6.15968e-11
5.39511e-11
-2.05433e-11
-3.03389e-10
-5.60314e-10
-3.22999e-10
-7.80068e-12
2.29524e-11
8.23279e-10
1.61299e-09
8.24866e-10
5.90981e-11
-5.0104e-12
-1.39868e-10
-1.84524e-10
-5.80838e-11
-2.86759e-11
6.58524e-13
3.87464e-13
6.02121e-13
1.39086e-12
-9.24532e-12
-1.62107e-14
-6.15509e-11
-9.01531e-11
1.75288e-10
2.9228e-10
1.01579e-10
-2.02226e-12
-4.11966e-13
-1.59243e-12
-7.37774e-14
-2.28791e-12
-1.94592e-12
-3.00018e-13
7.62267e-12
9.31975e-11
2.14315e-10
1.4661e-10
9.29277e-12
1.54127e-11
4.78699e-12
5.79798e-13
-2.54651e-10
-7.82342e-10
-4.46275e-10
-9.63576e-13
-1.72962e-10
4.96895e-10
1.14801e-09
6.15794e-10
2.88508e-11
4.75259e-11
-1.72611e-10
-4.89042e-10
-2.79445e-10
-6.21298e-17
5.32605e-15
2.10449e-14
1.27053e-15
8.03615e-15
-3.154e-15
-3.49977e-15
-3.56096e-16
-8.66831e-16
-5.91738e-15
-1.85634e-14
-1.25308e-14
-4.95827e-16
-1.1511e-14
-2.6687e-16
-2.0615e-15
-1.69793e-15
-4.99922e-15
-3.8029e-14
-3.87809e-15
2.9939e-18
6.00673e-15
4.23601e-15
-5.1755e-14
-3.1104e-13
-4.49383e-13
-2.87789e-13
-1.23295e-13
-2.15116e-14
-2.26534e-19
-8.01864e-15
-1.96954e-14
-2.73592e-14
-1.5325e-14
-6.29942e-15
-1.04012e-14
-9.7083e-16
2.01142e-15
1.84958e-14
-4.42882e-14
1.39201e-12
3.39762e-12
2.93562e-13
9.41434e-14
-4.33622e-13
-2.81665e-13
-3.95066e-14
-3.64785e-14
-3.89815e-14
-1.33492e-17
-2.39097e-13
-1.04906e-12
-1.47138e-12
-1.67499e-12
-5.26006e-12
-1.11194e-11
-1.69908e-11
-2.0923e-11
-1.69381e-11
2.18116e-13
6.36287e-13
8.64136e-12
8.4854e-13
-3.58182e-12
-1.57168e-11
-1.93649e-11
-9.10743e-12
-1.37568e-12
-1.61888e-13
-1.29528e-12
-1.49298e-12
-8.98171e-13
-3.80687e-13
-7.01544e-14
-3.79103e-15
-3.40476e-13
-2.84017e-13
2.35044e-12
1.00305e-12
2.96803e-14
1.54499e-11
2.82509e-11
3.4542e-12
-1.2391e-14
-1.55346e-12
-7.09853e-13
-4.45527e-14
-2.43102e-14
5.37162e-13
4.75967e-13
1.47904e-16
-5.19098e-13
-3.27774e-12
-8.38424e-12
-1.96896e-11
-3.68478e-11
-5.32441e-11
-6.41308e-11
-5.50733e-11
1.48336e-12
5.5937e-13
6.7825e-11
2.74151e-11
-7.78949e-12
-2.40899e-11
-3.12224e-11
-1.4746e-11
-1.63429e-12
-2.39451e-13
2.13925e-12
6.65308e-12
5.27926e-12
1.81568e-12
5.84572e-14
-1.06544e-13
-3.90938e-13
-1.6051e-14
6.21262e-12
3.92679e-12
2.65927e-12
4.8485e-11
8.31518e-11
1.10628e-11
-1.28185e-13
-6.29307e-12
-3.78198e-12
-5.62725e-13
1.16078e-16
8.03457e-13
1.53544e-12
2.60984e-13
-1.00928e-13
-4.30252e-12
-1.19721e-11
-2.22258e-11
-3.77586e-11
-5.54515e-11
-6.92835e-11
-7.09352e-11
-5.98812e-12
4.8736e-12
2.37787e-10
1.7527e-10
-7.82761e-12
-1.83206e-11
-2.68602e-11
-1.27898e-11
-4.49912e-13
2.32295e-12
2.77859e-11
5.17576e-11
3.32117e-11
6.41691e-12
3.21233e-13
4.95784e-12
1.6195e-12
1.01446e-13
7.67619e-12
1.75048e-11
6.63348e-12
1.18438e-10
1.91457e-10
3.40113e-11
2.74011e-14
-1.77283e-11
-1.40545e-11
-3.03907e-12
2.85138e-13
1.15971e-13
2.2561e-12
2.09728e-12
1.21591e-13
-3.77222e-12
-1.50311e-11
-2.78468e-11
-5.29471e-11
-8.02684e-11
-1.0511e-10
-1.35914e-10
-4.75185e-11
3.94272e-12
4.787e-10
6.12849e-10
1.21427e-11
-1.21996e-11
-1.44962e-11
-1.3577e-11
-5.41162e-13
5.31941e-12
6.16451e-11
1.14623e-10
7.34738e-11
1.20815e-11
2.35418e-12
2.27436e-11
1.92663e-11
3.25955e-12
5.56007e-12
4.77777e-11
1.64063e-12
1.9534e-10
4.26146e-10
1.20074e-10
3.61051e-13
-2.70853e-11
-2.91021e-11
-8.10656e-12
8.36229e-13
8.18678e-13
1.73851e-12
8.00692e-12
1.02978e-13
4.02416e-12
-2.09459e-13
-1.68833e-11
-6.54322e-11
-1.19883e-10
-1.80356e-10
-2.70993e-10
-1.47797e-10
-1.88548e-12
4.80264e-10
1.38759e-09
1.60117e-10
-1.86366e-11
-6.86552e-13
-8.23007e-12
-1.62163e-12
3.73814e-12
7.45335e-11
1.60991e-10
1.0616e-10
1.65929e-11
2.97355e-12
3.81343e-11
5.69825e-11
1.99518e-11
1.71313e-12
8.18006e-11
1.06385e-11
1.47683e-10
7.71567e-10
3.15723e-10
1.29029e-13
-3.0861e-11
-5.36779e-11
-1.81953e-11
-1.0583e-12
5.86289e-12
5.07023e-15
1.12111e-11
1.7981e-12
1.29639e-11
2.86394e-11
1.23401e-11
-4.97842e-11
-1.39136e-10
-2.96193e-10
-5.24961e-10
-3.13056e-10
-1.97251e-12
2.57355e-10
2.13267e-09
5.58313e-10
-5.07788e-11
-1.28838e-11
-2.13363e-12
-9.1359e-14
2.7922e-12
6.60191e-11
1.3519e-10
7.15577e-11
4.078e-12
9.49677e-13
1.98086e-11
7.80137e-11
6.38599e-11
2.31161e-12
7.90386e-11
7.96225e-11
3.38879e-11
8.81367e-10
5.9484e-10
9.13367e-12
-1.88597e-11
-6.79278e-11
-3.31461e-11
-6.32104e-12
3.65652e-12
6.08521e-12
1.07446e-12
8.59813e-13
2.37102e-11
6.56173e-11
5.19325e-11
2.89021e-13
-1.05386e-10
-4.31955e-10
-9.70551e-10
-5.83087e-10
-2.31191e-12
-1.11749e-10
2.15428e-09
8.71604e-10
-1.21097e-10
-4.60974e-11
-5.80451e-11
-6.85198e-12
7.49153e-12
6.89364e-11
1.04094e-10
1.98253e-11
-2.42e-12
-6.11807e-11
-1.84454e-10
-4.04678e-11
9.18124e-11
3.2173e-11
3.31486e-11
1.34876e-10
3.75118e-17
5.45573e-10
7.62198e-10
3.48696e-11
-7.98414e-12
-6.09707e-11
-3.27031e-11
-3.75891e-12
-2.30245e-12
7.02026e-12
2.68707e-11
1.97736e-11
7.11239e-11
1.19063e-10
7.23755e-11
1.98081e-11
-5.57817e-11
-5.52877e-10
-1.44419e-09
-8.34798e-10
-8.17997e-12
-7.88929e-10
1.05745e-09
6.69733e-10
-1.70248e-10
-6.67751e-11
-1.41151e-10
-1.91095e-11
3.80045e-11
1.17762e-10
1.38468e-10
-3.2002e-12
-3.89015e-12
-2.21786e-10