/*--------------------------------*- C++ -*----------------------------------*\
| =========                 |                                                 |
| \\      /  F ield         | OpenFOAM: The Open Source CFD Toolbox           |
|  \\    /   O peration     | Version:  5.0                                   |
|   \\  /    A nd           | Web:      www.OpenFOAM.org                      |
|    \\/     M anipulation  |                                                 |
\*---------------------------------------------------------------------------*/
FoamFile
{
    version     2.0;
    format      ascii;
    class       volScalarField;
    location    "50.4676134421789371";
    object      VVWMean;
}
// * * * * * * * * * * * * * * * * * * * * * * * * * * * * * * * * * * * * * //

dimensions      [0 3 -3 0 0 0 0];

internalField   nonuniform List<scalar> 
60000
(
-8.37403e-14
-1.00164e-13
-4.05174e-14
-1.17551e-15
1.10362e-15
2.96083e-15
1.00961e-15
3.30376e-16
1.6081e-16
-4.26086e-16
-8.24204e-15
-1.8092e-14
-5.65252e-15
-2.08126e-15
2.45044e-15
2.52495e-14
1.03588e-15
6.14972e-14
2.55069e-13
2.94191e-13
2.19586e-13
2.17749e-14
-4.72877e-15
-7.29397e-15
-6.10636e-14
-1.59736e-13
-6.29803e-14
-6.35226e-14
-8.95343e-14
-1.9202e-14
1.47699e-14
9.36045e-14
2.5325e-13
3.25698e-13
1.6865e-13
1.92147e-14
1.76942e-15
-6.76737e-15
-2.68061e-14
-4.55131e-14
-4.20254e-12
-1.97512e-12
-9.9768e-14
7.06573e-14
6.13757e-13
1.21978e-13
1.38155e-14
6.79934e-15
-1.23831e-15
-3.45008e-13
-1.94509e-12
-1.86937e-12
-1.3672e-13
2.51517e-14
1.45733e-13
3.54354e-13
1.49826e-12
2.65272e-12
5.63172e-13
8.01052e-13
6.69064e-13
-1.21793e-12
-1.69757e-13
-4.83894e-12
-1.82325e-11
-1.64401e-11
-5.96605e-12
-8.62932e-13
-2.72248e-13
-1.54697e-13
4.22086e-14
4.06474e-14
1.13811e-12
3.31711e-12
3.72298e-12
2.09187e-13
1.11125e-13
-3.20246e-14
-8.79669e-13
-3.58468e-12
-1.06902e-11
-7.39922e-12
-3.14891e-13
1.59538e-13
1.99909e-12
1.29248e-12
2.57929e-14
7.8647e-14
-3.67495e-14
-3.51867e-13
-4.61139e-12
-8.51e-12
-1.9939e-12
4.37544e-15
1.05713e-12
5.92763e-12
1.59632e-11
1.94623e-11
2.17787e-12
1.07081e-11
1.35795e-12
-3.38236e-11
-3.22312e-12
-3.69221e-11
-9.2478e-11
-4.57914e-11
4.18652e-13
8.21918e-13
1.33022e-13
2.14941e-13
2.10122e-13
1.19507e-13
3.52263e-14
1.59558e-12
5.26628e-12
2.21053e-12
2.28208e-13
-7.60023e-13
-5.12217e-13
-2.43155e-12
-2.11305e-11
-2.30219e-11
-1.46885e-12
3.07894e-13
3.47977e-12
3.47872e-12
6.08284e-13
2.51824e-13
-6.02476e-15
-5.93192e-15
-6.77338e-12
-2.17405e-11
-8.24753e-12
-4.76151e-15
3.18293e-12
1.80089e-11
3.96105e-11
3.89831e-11
3.59776e-12
3.47822e-11
1.15954e-12
-1.35998e-10
-9.26723e-12
-1.32143e-10
-2.34962e-10
-5.81705e-11
2.12854e-11
6.61462e-13
8.72609e-12
9.47191e-12
2.93062e-12
2.6565e-14
2.2068e-13
7.05143e-13
7.84569e-12
7.14228e-12
5.00847e-14
1.49482e-13
-4.65336e-12
-2.98258e-13
-2.671e-11
-7.51515e-11
-1.26301e-11
8.18408e-14
4.20742e-12
4.54182e-12
1.82922e-12
7.78293e-14
1.19854e-15
-6.59573e-13
-7.35496e-12
-6.22011e-11
-4.29001e-11
-9.46475e-13
5.378e-12
4.58217e-11
8.71708e-11
6.34543e-11
5.28185e-12
7.89845e-11
7.98611e-11
-3.45098e-10
-3.41839e-11
-3.45904e-10
-5.7371e-10
-1.23656e-10
4.18205e-11
6.40494e-13
3.15821e-11
4.01433e-11
1.41945e-11
1.35556e-12
4.30889e-14
8.33526e-14
7.71091e-12
1.8337e-11
1.57421e-12
3.78937e-12
-4.39689e-12
-2.47162e-12
-3.56563e-12
-1.13083e-10
-5.98131e-11
-2.89982e-13
2.73458e-12
4.20838e-12
2.24206e-12
2.07422e-13
6.21139e-14
-6.88473e-13
-2.51777e-12
-1.18697e-10
-1.68857e-10
-2.1695e-11
2.71675e-12
1.05692e-10
2.03939e-10
1.03902e-10
8.07742e-12
8.81105e-11
2.73684e-10
-5.94791e-10
-1.14058e-10
-6.24481e-10
-1.15914e-09
-2.57202e-10
6.59633e-11
2.92956e-12
2.92424e-11
5.95177e-11
3.32488e-11
6.69335e-12
4.19688e-13
7.84192e-14
2.80971e-12
1.68446e-11
7.61049e-12
5.06167e-12
1.42881e-11
-6.04439e-12
-1.90064e-12
-4.73309e-11
-1.02352e-10
-6.21442e-12
-3.48645e-13
2.02746e-12
1.21148e-12
8.775e-13
8.6839e-13
4.19328e-13
-4.99373e-13
-1.40271e-10
-3.82187e-10
-1.10164e-10
6.05634e-13
2.03921e-10
4.59247e-10
1.70001e-10
5.08599e-12
6.10998e-11
3.84214e-10
-6.43553e-10
-2.29255e-10
-8.28222e-10
-1.70796e-09
-3.77452e-10
6.77758e-11
6.06258e-12
1.73031e-11
4.54533e-11
3.26229e-11
1.08042e-11
2.44237e-12
1.32702e-12
3.19848e-12
9.29613e-12
7.32578e-12
1.54747e-12
2.75622e-11
2.26872e-11
1.40092e-11
-1.92372e-12
-4.81075e-11
-8.1285e-12
-1.08563e-12
-4.51275e-14
4.37988e-14
1.14007e-13
1.22335e-12
9.92153e-13
-2.67753e-13
-1.27597e-10
-5.61261e-10
-1.9259e-10
5.70125e-12
3.54296e-10
7.97733e-10
2.70334e-10
2.30069e-12
-3.08246e-12
2.3968e-10
-5.4949e-10
-3.38783e-10
-8.4862e-10
-1.99922e-09
-5.1168e-10
2.014e-11
5.32203e-12
1.05512e-11
2.80241e-11
1.48603e-11
-9.62376e-13
-8.91905e-12
-6.78886e-12
3.7772e-12
1.06953e-11
5.19072e-12
3.33777e-13
1.86787e-11
4.92899e-11
4.74624e-11
6.26228e-13
-5.71649e-12
-6.99116e-13
-4.64136e-12
-8.68261e-13
5.81663e-15
1.48001e-13
1.67746e-14
1.01021e-14
-8.75842e-13
-1.10776e-10
-4.95542e-10
-7.02106e-11
8.39895e-12
5.12137e-10
1.02338e-09
3.51248e-10
9.31915e-13
-9.46661e-11
-1.25724e-10
-5.37248e-10
-3.38586e-10
-7.64743e-10
-2.00961e-09
-7.21582e-10
-7.65722e-11
1.29562e-12
8.43384e-12
1.67996e-11
3.14029e-12
-4.9488e-12
-1.7224e-11
-3.56278e-11
-1.68249e-11
1.71748e-11
1.17449e-11
2.34187e-13
6.64112e-12
3.66235e-11
4.24165e-11
1.18234e-11
-6.41634e-13
-7.15813e-12
-2.43666e-11
-3.30023e-12
2.25613e-13
3.18086e-13
1.3754e-13
1.19021e-12
-5.68144e-12
-1.23345e-10
-2.5852e-10
1.40379e-10
4.18888e-12
6.46517e-10
1.00572e-09
3.32802e-10
1.432e-12
-1.29782e-10
-5.07182e-10
-6.10024e-10
-2.31548e-10
-6.15589e-10
-1.79431e-09
-1.00943e-09
-1.5562e-10
-3.58636e-13
8.46667e-12
9.86171e-12
-7.2796e-13
-1.53785e-12
-7.68211e-12
-3.91837e-11
-4.6718e-11
1.14537e-11
3.08999e-11
7.30935e-12
4.80822e-14
1.01889e-11
5.98959e-12
1.44348e-11
-6.08933e-12
-5.93959e-11
-9.57733e-11
-1.79098e-11
1.04584e-12
5.15801e-13
2.04566e-15
1.52221e-12
-1.34689e-11
-1.881e-10
-2.03293e-10
1.36359e-10
2.78664e-11
7.86301e-10
9.16217e-10
2.42686e-10
1.8184e-12
-5.64347e-11
-4.14837e-10
-4.6088e-10
-1.11365e-10
-3.14851e-10
-1.46369e-09
-1.1199e-09
-1.52759e-10
-7.9709e-14
8.54115e-12
5.29153e-12
-3.2531e-13
-3.2533e-13
-8.77376e-13
-2.95695e-11
-5.90931e-11
-5.71123e-12
3.99139e-11
2.50072e-11
7.97857e-12
8.93006e-13
1.71375e-11
1.1805e-12
-6.53071e-12
-1.5566e-10
-1.94746e-10
-4.25958e-11
1.11331e-12
4.03803e-13
7.62072e-15
1.70749e-12
-1.12397e-11
-2.61365e-10
-2.92046e-10
4.98959e-11
6.44034e-11
8.18272e-10
7.29256e-10
5.46952e-11
-8.03384e-12
2.33474e-11
3.01856e-10
3.08746e-10
3.79307e-11
-7.2393e-11
-1.0964e-09
-9.61882e-10
-1.02026e-10
-2.20653e-13
8.13328e-12
2.02795e-12
-5.92039e-13
-1.20128e-11
-2.6916e-12
-2.43524e-11
-8.17435e-11
-2.86781e-11
2.75645e-11
2.41776e-11
1.72537e-11
2.46993e-11
1.0457e-10
2.09723e-11
3.22623e-12
-1.54481e-10
-2.03389e-10
-6.26781e-11
-1.73465e-12
5.77826e-14
4.49165e-13
4.64533e-12
7.3356e-13
-3.18517e-10
-4.71827e-10
-4.89737e-12
3.96017e-11
6.08539e-10
3.34675e-10
-2.77982e-10
-6.68868e-11
8.19106e-12
8.07132e-10
1.42838e-09
2.47638e-10
-1.91247e-11
-7.98793e-10
-6.51903e-10
-5.06468e-11
4.81497e-14
6.57281e-12
1.05137e-13
-7.382e-13
-4.19333e-11
-2.62424e-11
-1.80298e-11
-1.25407e-10
-7.30883e-11
1.2734e-11
9.97016e-12
6.61216e-12
3.81321e-11
1.30487e-10
7.7641e-11
2.97397e-12
-2.58088e-11
-8.39457e-11
-5.79818e-11
-1.68193e-11
-5.3944e-13
9.25696e-13
7.14925e-13
4.00464e-11
-2.52524e-10
-7.52663e-10
-1.19498e-10
6.81358e-12
3.01945e-10
-1.16479e-10
-6.75303e-10
-2.10114e-10
1.81955e-11
5.49634e-10
1.67559e-09
3.80822e-10
-6.16935e-12
-3.5708e-10
-2.75042e-10
-2.16954e-11
1.14463e-13
1.71066e-12
3.23073e-12
2.02351e-11
-3.61335e-11
-5.47517e-11
-1.03555e-11
-1.80972e-10
-1.54075e-10
-9.85187e-12
2.52258e-12
1.56429e-13
2.12673e-11
7.8351e-11
7.61753e-11
6.73871e-13
1.95968e-11
8.44252e-13
-2.5333e-11
-2.38909e-11
-1.11407e-11
-1.32205e-12
9.34541e-12
1.712e-11
3.24187e-11
-7.56969e-10
-3.59491e-10
2.57517e-12
2.3204e-11
-4.64504e-10
-9.6166e-10
-2.85469e-10
1.52277e-11
4.14641e-10
1.4125e-09
4.55251e-10
3.66999e-13
-9.31577e-11
-1.36165e-10
-3.23887e-11
-5.36052e-13
8.59965e-13
1.321e-11
5.46248e-11
4.01636e-11
-2.81099e-11
-8.62705e-12
-2.78891e-10
-3.27448e-10
-5.10242e-11
8.2607e-14
4.44613e-12
4.20891e-12
3.97549e-11
5.58805e-11
4.97696e-12
6.18873e-12
1.62699e-11
7.59437e-12
-5.61811e-12
-2.90075e-12
-2.14873e-12
4.31328e-12
5.61227e-13
1.38903e-10
-2.65232e-10
-5.74435e-10
-4.00808e-11
-1.06197e-10
-5.27044e-10
-5.681e-10
-1.34117e-10
1.45211e-12
4.91433e-10
1.34002e-09
5.28905e-10
4.50677e-12
-6.18571e-11
-2.01306e-10
-1.0712e-10
-9.60182e-12
5.39041e-12
1.80591e-11
4.82417e-11
4.87778e-11
3.91055e-12
-1.13876e-11
-3.59206e-10
-6.78072e-10
-1.99199e-10
-6.32334e-13
1.55279e-11
2.8473e-12
8.86096e-12
2.63845e-11
7.94638e-13
-1.85907e-12
1.02928e-11
3.60862e-11
8.5475e-12
5.13391e-14
-1.3868e-12
-7.25965e-16
1.84126e-13
8.03662e-11
-4.43046e-12
-4.78081e-10
-3.83098e-11
-1.00602e-10
9.73417e-12
-7.91092e-11
-4.71201e-11
4.42762e-12
4.15864e-10
1.04164e-09
4.19377e-10
1.57188e-12
-1.11949e-10
-3.58082e-10
-1.65194e-10
-1.23306e-11
2.76448e-12
1.8328e-11
7.65945e-11
6.6658e-11
2.63752e-12
-1.21592e-11
-3.27707e-10
-9.61954e-10
-6.14391e-10
-3.77661e-11
3.34527e-12
1.44351e-11
1.30939e-13
2.07059e-12
-3.7702e-15
-3.35579e-12
2.20635e-12
2.77178e-11
4.0954e-12
1.33124e-11
5.9926e-12
-2.65664e-12
4.96783e-12
4.04062e-11
2.79773e-11
-1.07549e-10
-9.85659e-13
6.74101e-11
1.59072e-10
-9.73299e-11
-1.98719e-11
-2.32058e-11
2.42505e-10
5.91131e-10
1.65247e-10
5.98998e-12
-9.61876e-11
-1.56816e-10
-1.97489e-11
-8.73674e-14
4.06557e-12
6.67163e-11
2.42781e-10
2.23676e-10
5.36378e-12
4.36551e-11
-1.79035e-10
-6.27647e-10
-6.88505e-10
-1.78038e-10
-1.66235e-12
2.33816e-12
-1.07948e-13
-3.52753e-13
-1.2902e-13
-3.61776e-12
-8.47929e-12
9.73939e-11
7.41215e-11
3.83633e-11
2.00578e-10
3.61235e-11
-1.83809e-11
8.65804e-14
1.79604e-11
1.19469e-11
6.42619e-12
7.35484e-11
-2.48853e-11
-1.33391e-10
-2.55886e-11
-2.75734e-11
-7.07345e-12
1.48314e-10
3.63628e-11
1.52722e-11
2.23105e-11
6.86654e-12
1.40108e-12
-1.63303e-12
-6.3357e-11
-1.04218e-10
1.66208e-10
2.56028e-10
1.04481e-11
1.33414e-10
3.7021e-11
-2.49676e-10
-3.52767e-10
-2.26282e-10
-4.70756e-11
-2.04524e-12
-4.16508e-11
-5.9183e-11
-1.03916e-11
-4.09693e-11
-5.24599e-11
3.19408e-10
2.91307e-10
2.81791e-11
6.66708e-10
3.84063e-10
-2.37029e-10
-1.09768e-10
-5.39995e-12
2.96114e-13
9.16656e-12
1.59079e-11
-9.43405e-12
-4.70623e-11
-3.1679e-11
-4.81276e-13
-3.19821e-11
-1.82219e-11
6.25416e-12
8.32405e-13
7.1787e-12
-2.83792e-12
-1.31431e-11
-4.41562e-11
-1.02474e-10
-2.41461e-11
2.87885e-10
2.76203e-10
6.64241e-12
1.62572e-10
1.55186e-10
-3.13054e-11
-7.43391e-11
-6.00974e-11
-3.53762e-11
-2.47125e-11
-2.27802e-11
-1.2188e-10
-7.78581e-11
-1.23806e-11
-5.00667e-11
2.52373e-10
2.50422e-10
1.10679e-11
7.16694e-10
1.02209e-09
-2.28527e-10
-3.58033e-10
-2.21083e-11
-1.59851e-11
-2.46971e-11
-1.16407e-11
7.06566e-12
3.20547e-11
3.46222e-11
8.50373e-12
-5.80803e-14
-9.79311e-12
-1.32384e-11
-1.26681e-12
-1.06413e-14
-2.92049e-12
-1.58022e-11
-3.97499e-11
-6.46051e-11
-1.57895e-11
1.43819e-10
1.07104e-10
4.77244e-11
5.06681e-10
3.38782e-10
2.03147e-11
-6.77501e-12
-7.79042e-13
-1.45891e-12
-4.56853e-13
-4.50372e-12
-2.4764e-11
-2.11622e-11
-4.00318e-12
-3.90504e-11
-9.72038e-12
2.74892e-11
1.11522e-11
3.97572e-10
7.33698e-10
9.55007e-12
-2.18443e-10
-2.71275e-12
-7.96067e-11
-3.82188e-11
-6.34366e-12
7.90646e-12
6.1195e-11
8.17038e-11
2.01663e-11
3.84823e-12
3.40238e-11
4.41339e-11
1.37663e-11
4.7111e-12
3.12409e-11
-5.6783e-13
-4.68558e-11
-5.24733e-11
-4.1481e-11
-2.23828e-12
3.15608e-11
4.01677e-11
7.2609e-10
9.8469e-10
2.06008e-10
-1.45805e-13
-7.63556e-11
-2.06644e-10
-1.16588e-10
-9.44482e-12
9.08448e-14
6.4748e-13
3.52197e-13
-3.90525e-11
-1.52065e-10
-7.6593e-11
-9.10909e-14
7.76145e-11
2.15373e-10
-1.04807e-10
-2.23271e-10
-3.5327e-11
-2.68656e-12
-1.55302e-11
6.08878e-13
2.19376e-11
8.55995e-13
1.04968e-11
1.1254e-11
1.35944e-12
1.07479e-12
1.32079e-12
7.11106e-12
6.5288e-11
9.70447e-11
-1.63775e-11
-1.81791e-10
-1.98836e-10
-9.46277e-11
-2.33491e-11
1.11308e-12
1.04175e-11
2.06495e-10
3.83697e-10
1.32208e-10
-1.04353e-11
-7.38518e-12
-7.76753e-11
-6.90769e-11
2.59318e-13
3.72091e-12
1.44531e-13
6.17067e-12
-6.8714e-11
-2.02769e-10
-8.42612e-11
-5.06605e-12
7.7983e-11
3.33245e-10
1.21803e-10
-8.38663e-11
-4.92863e-11
-4.21042e-11
-6.86715e-11
-3.34764e-12
5.28927e-11
1.40343e-11
1.86154e-12
1.97096e-11
4.17008e-11
6.83428e-11
9.56179e-11
1.08275e-10
9.12374e-11
3.05202e-11
-6.9441e-11
-1.50228e-10
-1.26816e-10
-3.31702e-11
-3.64074e-13
7.02847e-13
8.72417e-11
2.42109e-10
1.96e-10
3.15566e-11
-6.96674e-14
-1.23569e-11
-1.54232e-11
-1.59374e-12
6.20604e-13
1.0832e-11
3.88353e-13
3.13407e-11
2.96096e-11
-5.90975e-11
-3.90746e-11
-8.8569e-12
-4.53916e-11
1.92506e-10
2.91691e-10
9.01481e-11
8.62013e-13
-3.62052e-12
-1.51208e-11
-5.14225e-11
-5.95839e-11
-2.21158e-11
-6.53637e-13
4.2058e-12
6.34237e-11
1.91114e-10
2.30815e-10
1.26059e-10
3.20338e-11
9.27384e-12
-5.28905e-12
-1.05872e-10
-2.15195e-10
-7.94244e-11
-2.4302e-11
-1.43176e-10
1.28772e-10
2.86209e-10
7.26553e-11
4.65151e-12
1.66532e-11
-4.62455e-11
-3.26491e-11
-4.97862e-13
-2.88663e-17
-8.41212e-15
-6.3537e-16
7.84774e-15
3.09487e-15
1.95416e-15
2.29423e-15
2.54494e-15
-3.25616e-14
-4.05103e-14
-2.3694e-14
-1.75245e-14
-1.713e-14
-5.36521e-15
-1.88715e-15
-5.27571e-15
-8.50668e-15
-3.61338e-15
2.5329e-14
3.12839e-15
7.60419e-14
6.73407e-14
5.42821e-16
-8.91707e-14
-3.22345e-13
-5.25073e-13
-5.50479e-13
-4.3385e-13
-1.28816e-13
-5.1621e-15
4.68214e-16
2.95831e-15
2.84192e-14
7.0134e-14
3.02298e-14
4.16501e-14
2.22161e-14
4.00704e-15
6.21924e-16
6.58142e-17
-3.9834e-13
-3.50016e-13
-4.47402e-14
1.81813e-15
3.55813e-14
1.60868e-13
2.46839e-13
1.13144e-13
-4.94745e-14
-8.50261e-14
-1.07892e-13
-5.84769e-13
-1.46234e-12
-1.77341e-12
-1.99765e-12
-3.53853e-12
-6.16336e-12
-3.84829e-12
1.70198e-12
5.15034e-13
9.75987e-13
2.07039e-13
-9.92185e-15
-1.36959e-13
-2.05811e-14
-1.61091e-13
-2.12777e-13
-8.95015e-13
-1.25322e-13
-2.24277e-13
9.3681e-13
2.46943e-12
1.39134e-12
6.35e-14
3.23771e-13
3.60758e-14
8.4911e-13
4.98993e-14
-6.30518e-14
-2.61071e-13
-4.47272e-12
-2.72648e-12
-2.31161e-13
-1.09159e-13
-1.30251e-12
-1.12382e-12
1.08604e-12
4.17376e-13
5.85808e-14
-6.53853e-13
-1.02403e-12
-1.34654e-13
-2.87134e-12
-3.31288e-12
4.68925e-13
1.3241e-12
-1.34917e-11
-2.4236e-11
-2.2462e-12
1.10917e-12
1.74413e-11
1.91182e-11
-1.72423e-12
-6.21249e-14
-7.98899e-12
-1.05984e-11
-1.29798e-12
-7.30729e-14
-1.00046e-14
4.04375e-13
5.1901e-12
9.95667e-12
6.39451e-12
5.96021e-13
1.03042e-12
1.20532e-12
3.50707e-14
6.99939e-14
-2.21144e-13
-2.28866e-12
-1.64887e-11
-1.06768e-11
-4.90168e-13
-1.22941e-13
-3.17144e-12
-4.44427e-12
1.80974e-12
5.88677e-13
2.1192e-12
-1.4895e-12
-5.93665e-12
-2.46994e-13
-3.27094e-12
1.37481e-12
2.42558e-11
4.21187e-11
1.67719e-11
-2.68493e-11
-1.33019e-11
6.69895e-13
1.02477e-10
1.43097e-10
-7.02602e-12
-4.52104e-13
-4.16069e-11
-3.60757e-11
-2.1959e-12
2.43784e-13
6.94802e-13
1.03885e-12
1.16561e-11
1.8091e-11
8.13056e-12
1.4958e-13
8.06023e-12
1.04447e-11
1.70848e-12
1.51594e-13
-1.32709e-15
-3.52548e-12
-3.56727e-11
-3.78155e-11
-2.0764e-12
1.26391e-13
-5.23226e-12
-1.2045e-11
-2.47839e-13
1.42879e-12
9.20753e-12
1.29318e-11
-1.38403e-11
-3.62033e-12
-3.3888e-12
6.63236e-12
7.19939e-11
1.21058e-10
6.7844e-11
-3.24996e-11
-3.83614e-11
-5.70824e-13
2.2058e-10
5.36589e-10
2.07852e-11
-2.88705e-12
-1.48077e-10
-1.24603e-10
-7.4175e-12
8.12821e-13
4.27333e-12
1.91433e-13
1.2489e-11
2.06975e-11
7.9403e-12
4.91866e-13
2.1815e-11
4.10823e-11
1.37559e-11
5.10583e-14
6.79072e-13
-8.02743e-13
-3.97528e-11
-1.0864e-10
-1.33841e-11
2.50836e-13
-5.25562e-12
-2.31818e-11
-1.28492e-11
1.65794e-12
1.11581e-11
7.25646e-11
3.24034e-12
-1.59447e-11
-6.60718e-13
1.21932e-11
1.52979e-10
2.60683e-10
1.49888e-10
-3.79222e-11
-9.74655e-11
-1.24111e-12
1.69277e-10
1.12356e-09
1.8882e-10
-1.91953e-11
-3.52141e-10
-3.60578e-10
-3.36308e-11
2.14794e-13
6.9094e-12
9.44746e-13
5.76414e-12
1.30802e-11
3.84691e-12
1.17105e-12
2.77584e-11
8.36919e-11
5.07813e-11
1.78572e-12
6.56459e-12
-2.18287e-13
-8.98003e-12
-1.86477e-10
-5.27484e-11
9.77516e-14
7.99459e-13
-2.6681e-11
-2.68556e-11
-3.67653e-12
3.84842e-12
1.09475e-10
1.25524e-10
-1.69363e-12
-5.36989e-13
2.06895e-11
2.35033e-10
3.78526e-10
1.76752e-10
-8.00788e-11
-1.63532e-10
-2.72773e-12
-3.13475e-12
1.50396e-09
4.77049e-10
-6.0358e-11
-5.75245e-10
-6.91094e-10
-7.9119e-11
3.77104e-13
3.51956e-12
1.10322e-12
1.01318e-12
1.49741e-12
7.84018e-15
1.84089e-12
2.491e-11
1.01074e-10
1.16059e-10
1.96029e-11
1.09932e-11
1.10665e-11
-1.04664e-13
-1.39678e-10
-1.14944e-10
-1.20116e-14
1.54973e-11
-1.25587e-11
-3.02328e-11
-4.97611e-12
-6.13577e-12
4.20433e-11
2.48521e-10
1.51535e-10
9.70813e-12
3.59148e-11
2.93617e-10
3.68276e-10
9.31168e-11
-2.0175e-10
-2.25324e-10
-5.5485e-12
-2.2496e-10
1.30098e-09
5.96351e-10
-1.18696e-10
-7.11277e-10
-9.25967e-10
-9.02905e-11
5.68796e-12
4.94482e-13
6.75808e-14
4.24892e-13
-2.30382e-12
-1.52676e-12
-3.78746e-11
-3.62762e-11
6.97282e-11
1.50527e-10
6.82415e-11
2.20169e-12
4.57522e-11
1.23652e-11
-3.21763e-11
-9.92463e-11
-6.32659e-14
4.41723e-11
2.38859e-11
-2.46834e-11
-5.20947e-13
-4.33331e-11
-7.21582e-11
1.22233e-10
3.22617e-10
7.33607e-11
4.7716e-11
3.08812e-10
2.6995e-10
-7.15051e-11
-3.25233e-10
-2.40732e-10
-5.56489e-12
-5.09397e-10
3.29386e-10
2.66744e-10
-1.51511e-10
-7.19895e-10
-8.18394e-10
3.07159e-12
2.2743e-11
3.54061e-13
2.94056e-13
-6.65149e-13
-9.27266e-12
-1.19902e-12
-9.57045e-11
-2.06965e-10
-5.60545e-11
1.25551e-10
1.11041e-10
7.17925e-12
4.85022e-11
1.79336e-11
-4.48996e-15
-2.90227e-11
-7.82914e-14
5.03212e-11
4.68546e-11
3.22045e-12
-1.03669e-12
-1.15728e-10
-2.5995e-10
-1.49716e-10
1.87913e-10
9.86399e-11
6.69284e-11
3.66031e-10
2.23554e-10
-9.35874e-11
-2.68308e-10
-1.85172e-10
-3.74256e-12
-8.26382e-10
-1.2135e-09
-4.34387e-10
-1.19895e-10
-5.01245e-10
-2.48423e-10
1.61066e-10
3.71993e-11
1.73413e-12
1.02242e-12
-2.10115e-12
-1.89937e-11
-7.0088e-13
-1.11838e-10
-3.14486e-10
-2.15599e-10
3.76341e-11
1.08566e-10
3.75409e-11
8.10411e-12
1.18336e-12
3.29785e-12
-6.07013e-13
-2.18364e-11
-5.68848e-11
-1.81103e-11
2.33824e-11
4.49506e-13
-5.84306e-11
-4.37088e-10
-5.0722e-10
-9.34867e-11
5.72225e-11
7.66443e-11
4.70746e-10
5.41708e-10
2.84621e-10
-1.1609e-10
-1.67336e-10
-6.11946e-12
-9.66827e-10
-2.4298e-09
-1.04083e-09
-4.77233e-11
1.12843e-13
3.58262e-10
1.40735e-10
1.80278e-11
1.76166e-12
2.66856e-12
-5.19924e-12
-3.6681e-11
-1.50455e-12
-1.43319e-10
-3.80484e-10
-2.6961e-10
-3.11694e-11
6.01685e-11
5.11955e-11
1.31388e-11
1.28884e-10
2.92875e-11
-8.2705e-13
-1.37513e-10
-2.50408e-10
-1.0997e-10
1.78045e-11
9.48497e-13
7.43849e-12
-2.80874e-10
-9.05392e-10
-5.49726e-10
2.22081e-11
5.74579e-11
6.71018e-10
1.22037e-09
8.12518e-10
-2.31365e-10
-2.15533e-10
-1.48049e-11
-6.94862e-10
-2.28285e-09
-9.56695e-10
2.64652e-11
3.37613e-10
3.53796e-10
-8.9556e-12
2.3309e-12
2.84747e-12
7.02624e-12
-9.06013e-12
-7.00676e-11
-7.7924e-12
-1.82614e-10
-5.30636e-10
-3.31181e-10
-4.5593e-11
1.91962e-11
2.49593e-11
7.18686e-11
3.93242e-10
1.42371e-10
1.11324e-11
-2.20257e-10
-3.04907e-10
-8.70568e-11
1.33042e-11
4.00956e-12
2.41788e-12
-9.14808e-11
-9.79965e-10
-1.36223e-09
-1.02824e-10
2.20078e-11
9.07598e-10
1.79813e-09
8.51897e-10
-5.94369e-10
-2.41772e-10
-9.76315e-12
-1.70805e-11
-7.63426e-10
-3.47396e-10
3.60013e-11
2.35724e-10
6.10567e-11
-2.84016e-11
1.02978e-11
5.65121e-12
1.38186e-11
1.8049e-12
-8.89422e-11
-3.64627e-11
-1.40776e-10
-7.1142e-10
-5.24538e-10
-7.70967e-11
6.91137e-12
3.6539e-12
7.43548e-11
3.51746e-10
1.8604e-10
2.03085e-11
-1.132e-10
-1.44438e-10
-2.15024e-11
6.96658e-12
3.25482e-12
1.03686e-12
-6.8214e-12
-5.99905e-10
-2.02893e-09
-4.85876e-10
8.48156e-12
9.23769e-10
1.78158e-09
3.45028e-10
-7.73865e-10
-2.23113e-10
1.63381e-12
4.71193e-10
8.35592e-10
2.19478e-10
1.2089e-11
7.30257e-11
6.32854e-11
3.57889e-11
1.50781e-11
8.56156e-12
1.49697e-11
3.06864e-11
-5.00075e-12
-4.78204e-11
-4.52832e-11
-6.66603e-10
-7.73247e-10
-1.82151e-10
2.6604e-12
1.8224e-12
4.05146e-11
1.65335e-10
5.85089e-11
7.4364e-11
1.40138e-10
2.65071e-11
-1.77612e-12
1.18612e-13
2.03462e-14
9.7427e-13
-2.57525e-14
-1.95391e-10
-1.67072e-09
-8.89205e-10
4.20569e-11
5.99249e-10
1.03853e-09
-8.82982e-11
-5.70884e-10
-1.72541e-10
1.2853e-12
4.28011e-10
1.24676e-09
5.79844e-10
2.98539e-11
3.71829e-11
2.38896e-11
-8.1883e-11
-7.65882e-11
-1.39468e-11
1.8386e-11
2.95313e-11
4.08506e-11
5.43611e-12
-6.46393e-12
-4.19101e-10
-8.84728e-10
-3.38892e-10
-1.61596e-11
4.94599e-12
3.20624e-11
8.58123e-11
7.72728e-12
9.51444e-11
1.48513e-10
7.33173e-11
3.03742e-11
8.20129e-13
2.06471e-12
3.80204e-13
4.53242e-14
-8.0268e-11
-9.38883e-10
-8.57556e-10
3.81049e-11
1.75407e-10
3.78508e-10
-5.67482e-11
-2.83836e-10
-1.03312e-10
8.94016e-13
2.66859e-10
9.74741e-10
5.88177e-10
3.40047e-11
-1.16931e-11
-2.76664e-10
-5.11314e-10
-2.84129e-10
-2.54588e-11
2.57946e-11
1.4636e-12
6.79189e-12
4.84183e-12
-4.73663e-12
-2.09066e-10
-7.39839e-10
-4.83473e-10
-5.64671e-11
5.61389e-12
3.59207e-11
4.49312e-11
2.53091e-12
7.86385e-12
-1.98651e-11
8.39825e-11
1.0751e-10
1.10533e-11
7.79589e-12
8.86696e-12
-7.88487e-13
-7.76255e-11
-5.65106e-10
-6.81016e-10
-1.58217e-11
4.77054e-11
3.1957e-10
1.9144e-10
-6.91905e-11
-7.55562e-11
3.36912e-13
1.43382e-10
6.79773e-10
4.17979e-10
6.55896e-12
-1.09157e-10
-6.84579e-10
-6.95476e-10
-2.32514e-10
-1.89249e-11
2.39929e-11
1.6258e-11
2.34947e-11
1.90638e-10
8.10504e-11
-1.51891e-10
-4.88509e-10
-5.64309e-10
-1.60065e-10
-3.82074e-12
2.84179e-11
1.5331e-11
7.56925e-14
-2.18141e-11
-7.24108e-11
2.02698e-11
8.45391e-11
2.0063e-11
1.13966e-11
5.29215e-11
2.11029e-11
-1.20024e-10
-3.93535e-10
-3.28349e-10
5.76579e-12
5.15991e-11
3.72348e-10
2.5363e-10
-4.6151e-11
-7.47096e-11
-1.34831e-12
3.68492e-11
2.54632e-10
1.33859e-10
7.21935e-12
-1.25647e-10
-4.55556e-10
-1.93089e-10
-1.6922e-11
-5.95167e-12
2.11297e-11
1.07479e-10
1.88261e-11
3.65558e-10
7.51267e-10
-1.54927e-11
-2.46048e-10
-2.5144e-10
-1.70465e-10
-4.90735e-11
8.64054e-12
-9.2272e-12
-1.71e-13
-3.72341e-11
-1.01907e-10
-3.83146e-11
1.16782e-10
8.61629e-11
1.15612e-11
2.30315e-10
2.18374e-10
-1.05761e-10
-2.38494e-10
-5.91864e-11
1.96019e-12
1.17543e-10
2.62867e-10
7.66206e-11
-4.36604e-11
-2.15261e-11
-3.62273e-13
-3.20176e-12
1.75695e-11
5.40444e-13
2.62733e-11
-3.79708e-11
-3.96486e-11
-3.45381e-12
8.19497e-13
4.56651e-12
-1.13098e-11
6.38813e-11
2.33082e-11
3.67851e-10
1.56253e-09
6.96268e-10
-1.41678e-10
-7.81499e-11
-2.88733e-11
-2.58997e-11
-1.73768e-11
-4.55815e-11
-7.03795e-11
-4.16241e-12
-7.68002e-11
-7.27861e-11
3.05833e-10
3.23203e-10
7.80442e-12
4.90005e-10
8.98309e-10
4.87114e-12
-2.07938e-10
-5.27122e-12
1.66542e-11
1.22838e-10
7.96421e-11
7.59596e-12
-3.06939e-12
-1.69266e-12
-1.51155e-13
-3.61932e-12
-4.03878e-13
1.59875e-13
7.50349e-12
9.07139e-12
3.34193e-14
-2.07807e-11
-6.78567e-11
-9.7908e-11
3.18225e-11
1.35227e-10
3.58399e-12
4.6256e-10
1.47961e-09
1.09284e-09
7.47576e-11
-3.12714e-12
-4.72556e-11
-3.57456e-11
-9.34481e-13
-2.84373e-11
-1.11826e-10
-5.0855e-11
-5.53443e-12
1.83626e-11
2.47878e-10
2.60409e-10
3.48859e-11
2.32381e-10
1.12929e-09
4.4277e-10
-4.53043e-10
-3.22419e-11
-1.36646e-10
-1.41211e-10
7.13924e-12
2.79099e-11
1.00727e-11
3.20963e-13
-7.67833e-13
-1.54623e-11
-1.45532e-11
4.22541e-12
1.1738e-13
5.12591e-12
-2.36339e-11
-8.66287e-11
-1.23544e-10
-7.72512e-11
8.45865e-11
1.29092e-10
1.45076e-11
7.0055e-10
1.44935e-09
7.10775e-10
3.83626e-11
-1.428e-11
-1.56113e-10
-1.51373e-10
-1.92526e-11
-3.04924e-12
-6.12373e-11
-3.3462e-11
-7.33083e-14
1.7614e-11
4.16818e-11
-1.21661e-12
-5.45986e-13
3.32939e-11
4.43324e-10
4.36275e-10
-3.74575e-10
-6.83981e-11
-1.99135e-10
-2.85957e-10
-1.24503e-11
2.04776e-11
2.32645e-12
1.03173e-13
2.78363e-12
-4.80174e-12
-1.61186e-11
5.04379e-13
1.99205e-12
6.54005e-11
1.38417e-10
8.33611e-11
-2.71198e-11
-7.08047e-11
-3.73145e-11
6.1077e-12
1.68927e-11
4.33302e-10
1.28745e-09
8.71041e-10
3.12527e-11
2.99768e-11
-2.3088e-10
-3.23228e-10
-9.40235e-11
-1.45808e-11
-1.50548e-13
4.2578e-14
2.49291e-14
-6.45932e-12
-5.95683e-11
-7.22179e-11
-7.71104e-12
-3.052e-12
4.25051e-11
-1.19011e-10
-4.39357e-10
-1.75298e-10
-8.41663e-13
-3.98659e-12
2.42169e-13
8.48012e-12
3.2013e-12
2.19635e-12
5.93689e-12
1.46763e-12
4.97108e-13
5.62287e-12
4.85646e-11
1.33585e-10
1.25799e-10
2.24542e-11
-1.15852e-10
-2.51108e-10
-2.08749e-10
-3.27915e-11
4.07359e-12
1.92682e-10
4.23912e-10
2.68367e-10
3.63416e-11
9.65543e-13
-6.65603e-11
-1.49369e-10
-9.1907e-11
3.3174e-13
9.11981e-13
3.03781e-12
-9.88607e-13
-3.37896e-11
-4.11392e-11
-2.75761e-12
-2.38284e-11
7.14336e-13
1.53322e-10
1.20377e-10
-7.73052e-11
-8.49474e-11
-2.21041e-11
-7.94166e-12
-9.44366e-13
1.67614e-12
3.12157e-12
2.51032e-11
4.18975e-11
3.83216e-11
3.29656e-11
3.40691e-11
3.14594e-11
2.56171e-11
2.23073e-11
-1.74425e-11
-1.48524e-10
-2.44664e-10
-1.22534e-10
-1.79814e-12
2.57507e-11
4.10362e-10
6.90311e-10
3.08913e-10
1.70667e-11
-5.14653e-12
-6.64939e-11
-7.46506e-11
-2.02481e-11
-8.55893e-12
1.5958e-13
1.68047e-13
4.68449e-13
1.14025e-13
-4.26655e-12
-4.53675e-13
-3.10439e-11
-3.10931e-11
8.90339e-11
1.212e-10
3.63696e-11
-1.36488e-12
-9.562e-14
-7.1884e-13
-1.73556e-14
-1.02412e-12
-6.51218e-13
-2.35279e-13
4.91181e-12
4.56779e-11
9.26663e-11
5.51381e-11
2.26761e-12
7.74966e-12
1.32379e-12
-2.37283e-12
-1.36241e-10
-3.45842e-10
-1.63423e-10
-6.11821e-12
-6.52082e-11
2.57549e-10
4.91908e-10
2.31543e-10
7.11425e-12
1.95076e-11
-9.45679e-11
-2.11242e-10
-1.04892e-10
-4.30342e-16
7.49639e-15
1.10266e-14
1.23059e-15
4.16758e-15
-1.35903e-15
-1.22264e-15
-5.8292e-16
-2.39778e-16
-6.80541e-15
-1.94924e-14
-1.85175e-14
-5.50841e-15
-5.9409e-15
-1.7704e-15
-3.3167e-15
-5.65367e-15
-6.50513e-15
-1.01464e-14
8.98127e-16
2.67462e-14
2.60228e-15
1.39436e-15
-2.98918e-14
-2.25122e-13
-3.28985e-13
-2.10775e-13
-7.73988e-14
-8.52452e-15
-1.72593e-15
-6.50872e-15
-5.88812e-15
-9.21765e-15
-3.4192e-14
-2.88136e-14
-9.07397e-15
-1.60544e-15
3.01032e-15
5.14371e-15
-2.80884e-14
7.27913e-13
1.47909e-12
7.65868e-14
2.97443e-14
-2.32438e-13
-1.36868e-13
-1.63984e-14
-1.65738e-14
-1.08761e-14
-6.89253e-16
-1.57018e-13
-5.86379e-13
-7.51723e-13
-9.25753e-13
-2.65512e-12
-5.58376e-12
-8.55433e-12
-1.04988e-11
-7.6337e-12
2.77617e-13
1.26991e-12
4.47346e-12
2.29901e-13
-1.81647e-12
-7.75483e-12
-9.05504e-12
-4.0894e-12
-5.88338e-13
-1.0984e-13
-6.00436e-13
-6.82389e-13
-3.92581e-13
-1.45787e-13
-2.21302e-14
-2.60322e-14
-1.85348e-13
3.06894e-14
1.17604e-12
4.00007e-13
2.90399e-14
7.59985e-12
1.20391e-11
1.0756e-12
-5.69744e-14
-7.61754e-13
-3.0411e-13
-1.59545e-14
-4.06481e-15
2.54391e-13
1.97308e-13
4.20396e-16
-2.7207e-13
-1.54057e-12
-3.7445e-12
-8.86849e-12
-1.64944e-11
-2.36515e-11
-2.82695e-11
-2.23231e-11
1.92175e-12
1.13585e-12
3.15267e-11
9.93123e-12
-3.73623e-12
-1.13815e-11
-1.40039e-11
-6.19801e-12
-5.74535e-13
-7.10357e-14
1.48996e-12
3.46002e-12
2.42637e-12
7.34871e-13
1.46056e-14
-4.24279e-14
-1.07345e-13
3.2308e-14
3.13088e-12
1.41606e-12
1.51249e-12
2.31232e-11
3.57796e-11
3.58709e-12
-2.08266e-13
-2.93484e-12
-1.57276e-12
-2.12647e-13
5.90807e-16
3.84302e-13
6.65999e-13
8.2395e-14
-8.83239e-14
-2.1305e-12
-5.45591e-12
-1.00422e-11
-1.68743e-11
-2.43569e-11
-3.02176e-11
-2.89006e-11
-9.86424e-13
5.55572e-12
1.12406e-10
6.67605e-11
-3.8289e-12
-8.17515e-12
-1.20577e-11
-5.23419e-12
-1.16175e-13
1.53874e-12
1.40697e-11
2.34072e-11
1.35628e-11
2.14913e-12
3.72164e-13
2.25514e-12
5.79301e-13
2.31718e-14
4.37211e-12
7.13478e-12
4.01556e-12
5.52598e-11
8.38087e-11
1.13623e-11
-2.8476e-13
-8.33315e-12
-5.90645e-12
-1.18221e-12
1.46345e-13
9.47657e-14
1.04263e-12
7.58869e-13
6.65418e-14
-2.08712e-12
-7.28663e-12
-1.33724e-11
-2.44385e-11
-3.5717e-11
-4.66382e-11
-5.78874e-11
-1.63776e-11
5.0848e-12
2.35838e-10
2.45686e-10
1.80195e-12
-4.38045e-12
-6.62745e-12
-5.59806e-12
-1.36254e-13
3.34559e-12
3.00393e-11
5.04503e-11
2.94732e-11
3.97082e-12
1.75136e-12
1.03618e-11
7.53823e-12
1.07595e-12
3.45039e-12
2.0722e-11
2.14045e-12
9.54855e-11
1.84732e-10
4.2643e-11
8.64121e-14
-1.28962e-11
-1.20699e-11
-3.16156e-12
4.94166e-13
2.59286e-13
9.74821e-13
3.28373e-12
3.29883e-14
1.65213e-12
-9.2338e-13
-9.34559e-12
-3.10138e-11
-5.38299e-11
-8.11461e-11
-1.17967e-10
-5.49161e-11
-1.58324e-12
2.54923e-10
5.83329e-10
5.01666e-11
-5.92841e-12
-3.84176e-13
-3.77277e-12
-4.92184e-13
2.61062e-12
3.72045e-11
7.10424e-11
4.26666e-11
5.603e-12
2.04886e-12
1.75189e-11
2.3305e-11
7.2393e-12
1.58111e-12
3.68184e-11
2.66013e-12
8.34832e-11
3.35953e-10
1.18354e-10
8.32841e-14
-1.54837e-11
-2.22908e-11
-7.16989e-12
-1.33816e-13
2.56037e-12
3.23776e-14
4.95272e-12
5.10901e-13
6.1765e-12
1.17518e-11
3.19109e-12
-2.492e-11
-6.38881e-11
-1.36239e-10
-2.29029e-10
-1.1782e-10
-4.39991e-12
1.60133e-10
9.31086e-10
1.88787e-10
-1.70295e-11
-6.31627e-12
-6.64358e-13
-2.60707e-14
1.9259e-12
3.19884e-11
5.90752e-11
2.8008e-11
1.24074e-12
6.4454e-13
1.0278e-11
3.40042e-11
2.51301e-11
5.54956e-13
3.76552e-11
2.82061e-11
2.6907e-11
4.02453e-10
2.27792e-10
2.31972e-12
-1.04955e-11
-2.95232e-11
-1.30223e-11
-2.37223e-12
1.98671e-12
2.65196e-12
5.69313e-13
2.3552e-13
1.14881e-11
2.79218e-11
2.04548e-11
-2.55692e-12
-5.14597e-11
-2.05525e-10
-4.24941e-10
-2.21492e-10
-8.15157e-12
-1.59445e-11
9.70345e-10
3.0052e-10
-4.29045e-11
-2.41676e-11
-2.24881e-11
-2.51173e-12
4.16435e-12
3.2035e-11
4.32563e-11
5.97152e-12
-5.77299e-13
-3.11497e-11
-7.44002e-11
-8.7438e-12
3.90648e-11
1.12053e-11
1.80045e-11
5.28163e-11
1.90646e-12
2.63862e-10
2.97936e-10
1.02451e-11
-5.28604e-12
-2.72835e-11
-1.24471e-11
-1.34588e-12
-9.94552e-13
4.05998e-12
1.25521e-11
9.45817e-12
3.18429e-11
5.13202e-11
2.81861e-11
7.02969e-12
-3.05767e-11
-2.71778e-10
-6.31009e-10
-3.1795e-10
-1.92772e-11
-3.45251e-10
5.10381e-10
2.23011e-10
-6.09932e-11
-3.64229e-11
-5.64385e-11
-6.28079e-12
1.81955e-11
5.44408e-11
5.56935e-11
-4.74622e-12
-9.35145e-13
-1.1782e-10