/*--------------------------------*- C++ -*----------------------------------*\
| =========                 |                                                 |
| \\      /  F ield         | OpenFOAM: The Open Source CFD Toolbox           |
|  \\    /   O peration     | Version:  5.0                                   |
|   \\  /    A nd           | Web:      www.OpenFOAM.org                      |
|    \\/     M anipulation  |                                                 |
\*---------------------------------------------------------------------------*/
FoamFile
{
    version     2.0;
    format      ascii;
    class       volScalarField;
    location    "50.4676134421789371";
    object      WWU;
}
// * * * * * * * * * * * * * * * * * * * * * * * * * * * * * * * * * * * * * //

dimensions      [0 3 -3 0 0 0 0];

internalField   nonuniform List<scalar> 
60000
(
-1.25221e-11
2.91945e-11
2.72778e-11
1.25549e-12
6.70616e-12
2.03543e-12
-1.11111e-11
-1.05286e-11
-1.99841e-13
-1.5954e-11
-3.39305e-11
-1.6668e-11
-3.76925e-12
-9.05818e-13
-2.42324e-13
-6.92794e-12
-1.70624e-11
-4.62078e-11
-1.60034e-10
-3.20921e-10
-2.35177e-10
-1.12142e-11
-1.1396e-10
-3.75425e-10
-4.43647e-10
-3.66771e-10
-3.21436e-10
-3.17878e-10
-1.78829e-10
-1.97177e-11
-1.88827e-11
-1.72909e-10
-3.57081e-10
-4.13216e-10
-2.10758e-10
4.55089e-11
1.24139e-12
-1.05067e-11
-6.05407e-11
-5.48637e-11
-4.79039e-10
-2.5462e-11
1.41865e-11
1.08361e-11
1.08811e-10
4.8009e-11
-9.15245e-11
-1.77906e-11
-1.55923e-10
-9.84135e-10
-1.30002e-09
-6.04263e-10
-7.84651e-11
-8.69071e-13
-9.00246e-11
-4.36097e-10
-8.96425e-10
-1.2243e-09
-1.60547e-09
-1.47427e-09
-2.50188e-10
-9.04771e-10
-5.03266e-09
-6.49701e-09
-4.29002e-09
-1.7379e-09
-6.58561e-10
-5.4297e-10
-4.82914e-10
-7.7163e-11
-1.1721e-10
-1.10222e-09
-2.62824e-09
-3.36666e-09
-2.58969e-09
-5.30708e-10
1.37631e-11
-9.62998e-11
-9.48106e-10
-1.0949e-09
-1.08173e-09
-2.54126e-10
-4.79696e-12
3.31177e-12
5.18481e-11
1.45634e-10
-7.64914e-12
-3.96121e-11
-1.28816e-10
-1.50094e-09
-2.44747e-09
-1.38882e-09
-2.42087e-10
-6.69715e-14
-9.01342e-11
-5.31649e-10
-1.12733e-09
-1.18829e-09
-1.04493e-09
-6.66312e-10
-1.83953e-11
-2.18911e-09
-1.04345e-08
-1.15452e-08
-5.58307e-09
-1.04163e-09
-5.35649e-12
-4.1681e-11
-6.99887e-12
-9.59157e-13
-3.73393e-11
-2.75453e-10
-9.86306e-10
-1.74015e-09
-1.72507e-09
-7.08368e-10
-1.0993e-11
-2.34079e-12
-5.27103e-10
-1.46993e-09
-1.10928e-09
-3.06823e-10
-4.06096e-14
9.36298e-12
6.55397e-11
2.40989e-10
4.19303e-10
8.6159e-11
-4.88191e-12
-8.26882e-10
-2.35156e-09
-1.40975e-09
-1.49528e-10
1.05842e-13
4.27133e-11
-3.20288e-10
-9.41048e-10
-6.96908e-10
-4.97944e-11
2.60579e-10
2.03309e-12
-1.04701e-09
-1.02756e-08
-1.19818e-08
-4.596e-09
-3.60412e-10
-1.60022e-10
-4.44324e-10
-2.04472e-10
-9.39341e-12
5.28483e-11
1.28747e-10
1.01117e-10
-1.82564e-10
-4.193e-10
-1.468e-11
2.32848e-10
2.95428e-12
1.77717e-11
-7.52511e-10
-1.03145e-09
-6.10222e-10
6.5312e-11
1.33692e-12
9.07087e-11
2.68644e-10
7.88473e-10
6.89777e-10
3.18482e-11
-7.03023e-11
-2.08263e-09
-2.40288e-09
-2.89648e-10
2.14569e-11
1.76488e-10
-1.78479e-10
-1.27502e-09
-7.42297e-10
5.45883e-10
1.53046e-09
1.59192e-10
4.61446e-10
-9.91198e-09
-1.58437e-08
-5.8091e-09
-3.54936e-10
-1.77364e-10
-4.63779e-10
-2.50656e-10
4.23345e-11
1.55229e-10
2.16957e-10
3.14416e-10
4.41983e-10
5.55149e-10
7.23536e-10
8.83645e-10
2.32322e-10
1.72006e-11
-5.12808e-11
-2.96945e-10
-1.11076e-09
-2.06437e-10
3.20154e-11
2.55397e-11
1.45102e-10
5.71772e-10
1.21696e-09
4.99095e-10
5.11012e-11
-2.9545e-10
-2.9249e-09
-1.37287e-09
4.5843e-11
8.70715e-11
-6.47567e-10
-2.80241e-09
-1.41464e-09
2.36946e-10
1.86585e-09
9.20413e-10
1.1765e-09
-8.89781e-09
-2.21725e-08
-7.59554e-09
-3.87577e-10
-1.02421e-10
-3.28075e-10
-2.88767e-10
-1.37089e-10
3.75984e-12
7.09167e-11
1.03818e-10
2.13278e-10
6.35268e-10
1.21682e-09
1.25223e-09
7.88061e-10
1.44939e-10
1.24459e-11
6.63543e-12
-4.06392e-10
-5.97077e-10
-5.23825e-11
1.38958e-12
2.14113e-11
1.75775e-10
8.3408e-10
1.117e-09
5.87517e-11
8.71556e-10
-8.01764e-12
-1.51751e-09
-1.91211e-10
-5.79606e-11
-2.58627e-09
-6.25157e-09
-2.20478e-09
-3.58526e-11
5.62955e-10
1.36129e-09
1.03122e-09
-3.27254e-09
-2.01379e-08
-5.74792e-09
-2.5878e-10
-4.03033e-11
-1.87222e-10
-2.07172e-10
-1.59696e-10
-7.74084e-11
-1.64678e-11
2.30757e-12
1.80117e-11
2.10379e-10
1.03834e-09
1.55728e-09
1.05762e-09
5.63344e-10
1.21988e-10
7.86114e-11
2.35685e-11
-9.58274e-11
-8.47803e-11
-1.98118e-11
-3.98591e-14
4.80338e-12
1.76135e-10
8.3468e-10
4.07977e-10
5.45223e-10
3.01028e-09
5.24088e-10
-2.50899e-10
-4.4762e-10
-6.92912e-09
-9.36424e-09
-2.37535e-09
-2.27587e-11
3.08258e-12
3.39484e-10
6.45002e-10
4.13832e-09
-7.90145e-09
-2.40252e-09
-1.97758e-10
-1.08218e-12
-7.39561e-11
-1.42411e-10
-1.36539e-10
-5.57681e-11
-2.16391e-14
-2.09258e-11
-1.57786e-12
5.82079e-12
3.9411e-10
1.29092e-09
1.23594e-09
7.68707e-10
5.16505e-10
5.51453e-10
1.12019e-11
2.32821e-10
1.80445e-10
-1.62064e-11
-4.82307e-12
-1.99503e-12
-3.9944e-11
8.13499e-11
3.91733e-10
1.84312e-10
3.12917e-09
1.5916e-09
-3.25215e-11
-1.82916e-09
-9.28605e-09
-7.52201e-09
-1.4707e-09
-3.11562e-12
9.47533e-11
6.57519e-11
6.07833e-10
6.78517e-09
1.94559e-09
-2.69853e-10
-2.16102e-10
-5.31455e-11
-7.02774e-12
-1.02876e-10
-1.15534e-10
-1.76139e-11
-5.78922e-11
-2.9012e-10
-2.09449e-10
-2.74204e-13
5.9459e-11
6.95335e-10
1.14084e-09
1.01827e-09
8.58572e-10
1.15217e-09
3.70395e-10
1.4826e-10
3.72281e-10
-5.47082e-12
-8.22518e-12
-2.35296e-11
-1.09328e-10
-1.81783e-10
6.5536e-11
7.49169e-11
2.6806e-09
1.04332e-09
-1.2341e-11
-3.55189e-09
-7.23817e-09
-3.63612e-09
-5.90945e-10
-1.92467e-12
2.89371e-12
2.56793e-10
5.67828e-10
3.63935e-09
3.38395e-09
5.59779e-10
-3.34415e-10
-3.06931e-10
-8.67501e-12
-8.18655e-11
-9.7683e-11
-8.33494e-13
-3.59443e-10
-1.01819e-09
-8.28794e-10
-1.33424e-10
9.07606e-13
2.95593e-10
8.5385e-10
1.09903e-09
1.22831e-09
1.31249e-09
9.16836e-10
3.34962e-11
4.12125e-10
-6.10635e-11
-3.25548e-11
-2.43755e-11
-2.33149e-10
-4.06721e-10
-1.06265e-10
2.38989e-11
2.17275e-09
1.13862e-09
2.47438e-10
-2.99597e-09
-4.87773e-09
-2.03226e-09
-2.43851e-10
-8.07261e-13
-2.8923e-12
3.82858e-11
1.44939e-10
5.3915e-10
9.17484e-10
6.56636e-10
-3.50524e-10
-5.54604e-10
-3.6086e-11
-7.47764e-11
-9.171e-11
-3.357e-11
-1.06582e-09
-2.58131e-09
-2.00975e-09
-4.05477e-10
7.12751e-13
1.38315e-10
5.61714e-10
8.43667e-10
1.12677e-09
6.9016e-10
8.21063e-10
3.78785e-13
2.57793e-10
-1.02089e-11
3.48534e-11
3.62087e-12
1.49888e-11
-3.10209e-10
-2.36391e-10
4.45392e-13
1.36792e-09
1.87273e-09
1.4631e-10
-7.78379e-10
-3.56643e-09
-1.32689e-09
-1.82413e-11
-3.87414e-12
-6.55034e-13
9.23982e-12
3.19551e-11
2.52065e-11
5.05773e-11
5.14251e-10
-8.58002e-11
-3.94164e-10
-2.51545e-11
-8.35965e-11
-1.20222e-10
-3.11938e-11
-1.59255e-09
-4.88497e-09
-4.47129e-09
-1.0831e-09
1.08791e-11
7.96252e-11
4.2178e-10
5.68389e-10
6.52206e-10
1.89255e-10
1.39589e-10
6.90631e-12
5.63765e-11
1.6132e-10
1.71427e-10
9.73143e-12
9.18013e-11
1.69379e-11
-2.44716e-10
-2.13487e-12
7.60706e-10
2.81208e-09
2.92083e-11
4.67814e-10
-1.88676e-09
-3.69399e-10
-1.98307e-10
-8.88753e-11
-6.42937e-11
1.45914e-10
4.53071e-10
3.10989e-10
1.34053e-12
4.59845e-10
5.19177e-10
5.09059e-11
-1.15398e-12
-1.18678e-10
-2.05871e-10
-2.28432e-12
-1.02971e-09
-5.83386e-09
-8.58011e-09
-3.44546e-09
-7.6251e-11
1.3922e-11
3.51417e-10
5.10285e-10
5.17417e-10
3.14372e-10
-1.8597e-10
-5.28793e-11
4.94467e-13
6.7987e-11
1.59487e-10
1.58258e-10
7.814e-12
3.98995e-11
-2.39269e-10
-1.17421e-10
1.029e-10
2.64417e-09
6.98006e-10
5.69161e-10
-2.30704e-10
-6.09728e-12
-1.19246e-09
-4.52692e-10
-3.33789e-10
1.44883e-10
1.67855e-09
5.67589e-10
1.36639e-12
5.96063e-10
9.52916e-10
1.68334e-10
-3.25267e-13
-1.5166e-10
-2.96183e-10
-1.29754e-10
-9.08901e-11
-3.12782e-09
-1.08815e-08
-9.27404e-09
-1.32547e-09
2.63244e-11
1.95878e-10
5.03446e-10
5.77719e-10
3.23577e-10
3.99466e-11
-9.33642e-12
3.02618e-11
8.21205e-13
5.57255e-11
2.33749e-10
1.93652e-10
3.63348e-12
-5.46573e-11
-1.90744e-10
6.36767e-12
7.65863e-10
1.02855e-09
1.73843e-11
8.8527e-12
-3.16561e-10
-1.65112e-09
-5.79158e-10
-2.68637e-10
-5.82976e-10
3.85785e-09
2.77823e-09
9.85574e-11
5.89587e-10
7.75497e-10
7.36507e-11
-5.08551e-12
-8.80766e-11
-2.57387e-10
-2.66985e-10
-1.41428e-10
-3.47937e-10
-7.08741e-09
-1.52273e-08
-6.45819e-09
-2.88567e-11
1.18735e-11
3.99042e-10
4.82077e-10
3.0333e-10
1.55978e-10
8.22869e-11
3.97416e-11
2.27174e-11
5.8913e-12
7.18265e-12
4.03324e-11
1.86585e-11
1.74174e-12
5.79323e-11
1.5508e-10
4.10387e-11
6.93876e-10
3.33123e-10
4.00918e-11
-2.11168e-10
-3.47682e-10
-1.35351e-10
-4.07197e-11
-7.44269e-10
4.0868e-10
2.58751e-09
3.64202e-10
3.64868e-10
5.6477e-10
8.51378e-11
5.61086e-12
2.18743e-11
1.89306e-10
2.2685e-10
-2.34107e-10
-8.4272e-11
-2.10198e-09
-1.36119e-08
-1.477e-08
-2.919e-09
5.3643e-11
1.4368e-10
4.15816e-10
2.6635e-10
1.17931e-10
4.0318e-12
8.95433e-12
4.40402e-12
9.40598e-11
5.69779e-11
3.88736e-13
-2.33192e-12
2.42216e-14
6.92237e-11
2.64469e-10
3.58182e-12
4.39987e-10
3.95765e-10
-2.96395e-12
-1.73143e-14
-4.91204e-12
-4.24224e-11
-1.4629e-12
-1.54781e-10
-7.5884e-10
-6.50225e-10
-8.63232e-11
-1.54257e-10
-3.89746e-10
1.98333e-10
8.27326e-11
9.09673e-11
6.12339e-10
9.0034e-10
3.63103e-10
-3.44043e-10
-6.27677e-11
-6.04732e-09
-1.58909e-08
-9.60815e-09
-1.13365e-09
-6.20769e-13
1.36288e-10
1.12775e-10
9.04529e-11
2.21602e-16
3.88071e-11
1.7378e-14
1.31264e-10
1.07253e-10
-5.14227e-11
-4.25268e-12
-3.06058e-13
1.18273e-11
1.39704e-10
1.54865e-11
1.36409e-10
5.14732e-11
-4.45725e-12
-5.11317e-11
-3.98838e-11
-2.45365e-10
-2.7633e-11
-1.16021e-11
-5.10788e-10
-1.42602e-09
-3.47041e-10
-1.92311e-10
-2.70746e-10
3.00852e-10
4.37399e-11
3.29837e-11
1.11079e-10
2.2328e-10
6.4645e-10
9.20355e-10
1.72082e-11
-5.02294e-10
-7.63984e-09
-1.18228e-08
-4.58456e-09
-2.13478e-10
-4.63169e-11
-2.17052e-13
3.96936e-11
2.91145e-10
3.14147e-10
2.28766e-11
7.13268e-11
-2.33114e-10
-8.26919e-10
-3.78833e-10
-6.96609e-12
8.14568e-12
5.61661e-13
4.09256e-11
7.18355e-11
5.48772e-11
-7.03655e-11
-4.97334e-13
-4.246e-10
-6.58882e-10
-1.26645e-10
7.73136e-13
-2.78322e-11
-3.30039e-10
-1.69065e-10
4.97888e-12
1.65191e-11
2.99427e-11
6.4619e-13
-1.85371e-11
-1.0247e-10
-1.04845e-10
7.74516e-11
3.98284e-09
3.53352e-09
8.11694e-11
-5.65891e-10
-5.05277e-09
-4.80581e-09
-1.10447e-09
-3.40737e-11
-3.28286e-10
7.1879e-11
1.01152e-09
7.9957e-10
4.01393e-11
4.42888e-11
-1.9889e-10
-4.78083e-10
-3.11077e-10
2.30608e-12
5.8193e-11
4.39451e-10
1.32955e-10
2.21807e-11
2.92088e-11
-3.47492e-11
-2.66707e-12
-1.18731e-10
-1.85519e-10
-8.53826e-11
1.29046e-11
6.68995e-12
5.4451e-12
3.92824e-11
3.62591e-11
2.44897e-12
6.11667e-11
-2.76144e-10
-5.97182e-10
-3.94768e-11
-8.70819e-10
-2.55439e-09
2.33478e-09
7.13539e-09
2.22802e-09
2.63931e-11
-4.46317e-10
-1.96815e-09
-1.40258e-09
-5.64615e-10
-9.2743e-11
-2.24334e-11
9.4015e-11
7.54199e-11
3.95478e-12
1.00953e-11
9.53367e-11
3.70889e-10
5.72724e-10
2.37257e-10
4.91309e-12
4.20495e-10
6.95134e-10
3.09437e-10
1.94194e-11
-9.96707e-12
-6.77904e-13
-1.53476e-11
-2.08998e-11
-8.89549e-12
-6.78212e-14
3.03571e-13
3.38206e-12
4.9577e-13
2.57907e-13
9.74191e-12
2.65099e-11
-3.04827e-11
-8.68293e-11
-9.19898e-12
-2.43468e-10
-1.63799e-09
-2.27263e-09
8.97558e-10
2.0047e-09
1.26732e-10
1.19634e-10
-3.99139e-10
-5.687e-10
-2.41032e-10
2.81598e-10
2.04886e-10
8.64917e-11
5.01942e-12
-6.39513e-12
-2.70732e-13
1.44455e-13
5.5991e-11
2.05258e-10
1.39434e-10
8.44675e-13
-5.10859e-11
-4.17204e-10
-2.52966e-10
2.67356e-10
1.16607e-10
1.11865e-11
5.16312e-11
-8.21184e-11
-8.98561e-11
-1.36174e-11
2.28638e-11
4.45886e-11
7.18121e-11
6.48386e-11
1.68766e-11
-2.06619e-14
-1.86633e-11
-1.10112e-10
-1.22902e-10
-3.85282e-12
-1.69241e-10
-4.97029e-10
-1.23932e-10
4.75858e-10
2.49758e-10
1.70348e-13
5.54386e-11
2.53103e-11
1.79495e-10
2.38411e-12
1.86549e-12
1.44217e-11
1.98781e-12
1.08716e-11
5.17652e-11
7.75064e-11
6.11129e-12
5.41417e-11
5.29493e-11
1.03608e-12
-1.34016e-10
-5.3658e-10
-1.58545e-10
2.47267e-10
3.99978e-12
3.30333e-10
6.45165e-10
3.48046e-10
1.03864e-10
5.01977e-11
5.76173e-11
6.30925e-11
-5.98149e-11
-2.70363e-10
-2.11682e-10
-1.82321e-14
-3.7339e-10
-9.14435e-10
-7.11234e-10
-1.91675e-10
-6.34518e-13
-1.0628e-10
-1.08529e-10
-4.42155e-11
-1.08268e-11
-1.24845e-12
-3.77649e-11
-6.87903e-11
-2.59473e-11
-3.18209e-14
-3.6377e-12
-3.43249e-12
-9.91328e-16
6.58439e-12
1.62606e-10
4.77096e-10
2.26902e-10
4.5603e-11
4.2188e-10
9.72752e-11
7.67589e-11
1.15016e-10
-1.67044e-11
7.40327e-11
2.67854e-12
1.02933e-10
1.98828e-10
7.76457e-11
-4.32781e-11
-1.29911e-10
-2.42058e-10
-3.51892e-10
-3.5818e-10
-1.97973e-10
-2.31044e-11
-4.31957e-11
-3.17277e-10
-5.88941e-10
-4.24001e-10
-6.51131e-11
6.00366e-13
1.20494e-10
2.48241e-10
-4.62129e-11
-6.74828e-11
-5.2324e-13
-4.21473e-11
-4.10112e-11
-1.01379e-11
-7.14491e-13
-1.43034e-10
-3.65674e-10
-1.77133e-10
2.25748e-11
1.26956e-10
1.12583e-09
1.22254e-09
1.41976e-10
1.60992e-10
4.68852e-10
2.53277e-10
3.60985e-12
1.56732e-10
3.82044e-10
3.02889e-10
1.14432e-10
1.77544e-11
-8.96411e-13
-2.64281e-12
-5.19787e-11
-2.16787e-10
-4.71517e-10
-6.08819e-10
-4.17114e-10
-1.11421e-10
-1.79011e-13
-7.26615e-11
-2.92695e-11
4.06538e-10
6.8671e-10
2.41691e-10
2.41435e-11
2.20306e-10
-2.30087e-10
-4.18462e-10
-5.32781e-11
-8.87359e-11
-2.90654e-10
-1.57269e-10
-2.68968e-12
-2.35256e-12
-3.56027e-14
-1.6282e-12
-5.17781e-12
-7.98168e-12
-7.58875e-12
-3.16324e-13
-5.62189e-12
-2.38426e-11
-3.83151e-11
-5.05406e-11
-6.64439e-11
-7.80105e-11
-7.96079e-11
-9.07018e-11
-9.94445e-11
-2.32368e-11
-9.40897e-11
-5.45053e-10
-5.75277e-10
-2.0899e-10
-3.03862e-12
-3.57663e-10
-8.50675e-10
-1.12128e-09
-1.00749e-09
-6.51241e-10
-2.9258e-10
-4.68226e-11
-2.95214e-11
-2.52545e-10
-3.85772e-10
-2.37418e-10
-4.44414e-11
5.28913e-11
5.45066e-11
9.82269e-12
-2.86206e-13
-7.98933e-15
-4.4897e-11
-1.55033e-11
-2.28546e-12
-8.93339e-15
-7.10258e-13
-1.20532e-11
-6.61481e-11
-2.70492e-11
-1.92508e-11
-2.23671e-10
-5.13412e-10
-6.1087e-10
-5.17739e-10
-3.61958e-10
-2.53749e-10
-3.45286e-10
-7.00055e-10
-4.63028e-10
-2.70673e-10
-4.69942e-09
-5.52405e-09
-1.40187e-09
-2.9363e-10
-5.35779e-09
-9.2028e-09
-8.41818e-09
-5.47483e-09
-2.91643e-09
-1.19414e-09
-1.88401e-10
-1.01526e-10
-1.06457e-09
-2.10477e-09
-1.88189e-09
-6.6231e-10
3.00733e-11
2.40473e-10
3.7335e-11
4.95655e-12
-2.05614e-11
-1.39966e-10
-4.3394e-11
-6.28625e-12
-4.67042e-12
-1.80124e-11
-9.58988e-12
-2.19691e-11
-9.56785e-11
-1.12231e-11
-7.80326e-11
-4.70238e-10
-6.73491e-10
-4.03199e-10
-9.71601e-11
-6.56187e-14
-1.34259e-12
-1.0999e-10
-4.81066e-10
-3.96241e-11
-1.67333e-09
-3.63782e-09
-6.98814e-10
-9.80703e-11
-6.51181e-09
-1.1383e-08
-6.9838e-09
-2.12359e-09
-3.60583e-10
-2.53673e-11
-1.79514e-11
-2.27031e-10
-7.14193e-10
-1.21411e-09
-1.303e-09
-6.92926e-10
-7.1161e-11
1.36758e-10
7.80967e-11
2.89722e-11
-2.73216e-11
-1.63898e-10
-5.40982e-11
-2.18669e-12
-2.71159e-13
-9.41875e-12
-1.13551e-11
-4.18419e-12
-8.20016e-11
-3.14202e-11
-3.22412e-13
-1.26535e-10
-3.98369e-10
-1.89364e-10
-2.13547e-13
-2.47906e-10
-4.53948e-10
-6.90497e-11
-1.36255e-10
-2.06603e-10
-1.02681e-10
1.19529e-09
3.95888e-09
1.23963e-11
-3.62555e-09
-1.11641e-08
-5.33105e-09
-5.97889e-10
-1.3095e-11
-1.20596e-10
-1.45905e-10
-2.73779e-10
-5.25814e-10
-7.24083e-10
-7.21487e-10
-3.29595e-10
1.78766e-10
2.69872e-10
2.27874e-10
1.16799e-13
1.13003e-10
2.18731e-11
-9.61287e-11
-2.56834e-12
-1.05646e-13
-4.14646e-12
-1.33329e-11
-1.27394e-13
-1.09038e-11
7.54345e-11
3.06061e-11
2.33929e-11
-2.47359e-10
-2.12699e-10
-1.01529e-11
-7.04355e-10
-1.35163e-09
-3.96007e-10
-4.74938e-11
-3.52571e-10
-8.60862e-12
1.8348e-09
1.03195e-08
2.59103e-10
2.17132e-10
-1.3865e-08
-7.11659e-09
-6.08061e-10
-3.53879e-11
-8.71477e-11
1.83109e-11
-2.5806e-11
-1.87681e-10
-2.82404e-10
-2.26566e-10
1.11859e-10
8.66008e-10
9.56312e-10
7.16571e-10
1.72944e-10
2.01662e-10
5.68227e-10
-1.29821e-10
-2.65083e-11
-3.83387e-13
-1.77601e-12
-2.74159e-11
-9.34422e-12
2.59086e-12
1.9707e-10
2.41048e-10
1.39479e-12
-8.29046e-11
-2.18226e-10
-3.1459e-11
-1.48461e-09
-2.67116e-09
-7.53919e-10
-1.39254e-11
-4.38918e-10
-1.74609e-10
2.75575e-10
1.07558e-08
1.80648e-09
3.3097e-09
-1.60947e-08
-9.52727e-09
-8.70317e-10
-1.45324e-11
-1.64386e-10
-1.7759e-10
-1.84236e-10
-2.10587e-10
-1.73077e-10
-7.75167e-11
1.8462e-10
9.6592e-10
1.82476e-09
1.74077e-09
1.10347e-09
4.85034e-12
6.43326e-10
4.08725e-10
-9.4788e-11
-4.21077e-14
-6.2846e-13
-2.98204e-11
-5.14524e-11
9.03254e-12
5.17024e-11
5.82267e-10
1.43229e-10
-7.29281e-15
-4.56881e-11
-1.4443e-10
-2.22231e-09
-2.93054e-09
-4.69741e-10
-2.72057e-11
-3.32643e-10
-4.16242e-10
1.53961e-11
6.13788e-09
2.78559e-09
5.12738e-09
-1.11561e-08
-6.73315e-09
-4.81014e-10
-1.32004e-11
-1.25737e-10
-1.45625e-10
-1.13233e-10
-4.71268e-11
-4.98883e-12
-4.33933e-12
2.89171e-11
6.72317e-10
1.98813e-09
2.77773e-09
2.79087e-09
6.3644e-10
1.82859e-12
1.34958e-09
9.33147e-12
-1.64919e-12
-2.29222e-11
-3.21865e-12
-1.24868e-10
-9.3865e-11
1.67632e-10
1.44991e-10
6.53531e-10
-1.74759e-10
-1.99135e-10
-7.5546e-10
-2.49578e-09
-1.56115e-09
-6.84321e-11
-6.51508e-11
-1.75411e-10
-3.24717e-10
1.63204e-10
1.70504e-09
1.65549e-09
5.46433e-09
-2.45544e-09
-2.14944e-09
-9.57974e-11
-4.04061e-11
-1.31277e-10
-1.04109e-10
-1.30366e-11
-9.98012e-11
-6.47074e-10
-6.85373e-10
-4.50549e-11
1.01012e-10
1.42493e-09
2.93625e-09
4.15766e-09
3.09627e-09
1.38653e-09
7.35586e-10
4.52461e-10
-1.66914e-12
-1.01943e-10
-2.61453e-11
-8.73808e-11
-4.59485e-10
3.24488e-10
7.697e-10
2.82404e-10
1.47183e-10
-2.07961e-09
-2.77704e-09
-2.30014e-09
-5.16353e-10
-3.71708e-12
-6.32303e-11
-7.3354e-11
-1.01828e-10
3.07413e-10
2.00809e-11
2.18058e-10
4.41162e-09
2.3437e-09
-4.20241e-11
-3.92526e-13
-9.27188e-11
-1.53702e-10
-9.53449e-11
-2.14674e-14
-4.31391e-10
-2.26317e-09
-3.47997e-09
-1.31279e-09
2.11609e-11
4.28945e-10
2.19376e-09
4.02813e-09
5.44633e-09
4.86102e-09
3.35652e-11
4.29678e-10
-3.17349e-13
-5.63503e-11
-3.3919e-11
-1.99283e-12
-8.84902e-11
-2.91009e-10
2.2814e-09
1.19649e-09
5.78815e-10
-2.56185e-09
-6.22912e-09
-2.92023e-09
-2.48619e-10
-4.97346e-12
-3.59274e-11
-3.92447e-11
2.34126e-11
5.50347e-10
5.40278e-10
1.31557e-10
2.37405e-09
1.7143e-09
4.81627e-11
-1.55233e-11
-1.05856e-10
-1.23567e-10
-8.356e-11
-1.51814e-12
-7.274e-10
-3.70399e-09
-6.03018e-09
-3.46777e-09
-2.12382e-10
7.05347e-12
9.97794e-10
2.65479e-09
5.21367e-09
6.87841e-09
1.8628e-09
1.14242e-10
1.91004e-11
-2.53632e-11
-4.55705e-12
-2.81661e-11
-4.3052e-11
-3.49215e-11
6.95435e-10
4.5741e-09
5.47627e-10
3.00396e-10
-5.84032e-09
-4.85727e-09
-1.00746e-09
-7.79829e-11
-5.16858e-12
-4.54159e-11
6.70651e-11
6.92292e-10
1.30719e-09
7.13126e-10
4.45846e-10
4.78193e-12
7.08252e-11
-2.56939e-11
-2.7951e-11
-6.24764e-11
-7.38134e-11
-4.49307e-12
-9.10457e-10
-4.74772e-09
-7.91161e-09
-4.77538e-09
-5.46902e-10
2.94188e-11
2.87183e-10
1.18311e-09
2.77272e-09
5.22116e-09
4.3134e-09
6.16554e-12
8.39562e-11
-1.89044e-10
-9.31688e-11
-9.54337e-12
-8.73318e-11
-2.98376e-12
1.64999e-10
3.16817e-09
4.0449e-09
2.75575e-11
-1.69761e-09
-8.01751e-09
-4.03237e-09
-5.34255e-10
-1.69006e-11
-1.26392e-10
4.94267e-11
3.40771e-10
1.07386e-09
5.94947e-10
9.769e-11
7.44447e-10
5.49591e-11
-4.10014e-14
-2.34825e-13
-5.85723e-11
-9.38921e-11
-3.27372e-12
-8.87013e-10
-5.04269e-09
-9.95755e-09
-6.68034e-09
-9.71078e-10
5.72405e-11
9.21707e-11
5.59255e-10
1.02062e-09
2.56357e-09
3.72539e-09
1.60643e-10
6.77527e-11
-1.35113e-10
-5.32695e-11
-6.26526e-12
-4.25846e-11
1.33774e-11
1.16552e-10
2.34461e-09
5.23745e-09
4.33252e-10
6.77048e-10
-7.90718e-09
-6.17844e-09
-5.88983e-10
-1.77218e-10
-3.40914e-10
4.50464e-12
6.89332e-14
1.24372e-10
9.56454e-11
2.5799e-10
2.7796e-10
2.03789e-12
-1.31517e-12
-1.11048e-11
-1.48588e-10
-1.70304e-10
-4.39916e-12
-3.03006e-10
-2.78296e-09
-9.52461e-09
-1.01198e-08
-2.56475e-09
1.53811e-11
3.1184e-11
3.93875e-10
8.68477e-10
1.647e-09
1.50822e-09
1.64406e-10
4.68911e-12
-1.08185e-11
-1.83714e-12
-2.19126e-12
-1.43629e-12
3.36261e-11
1.58416e-11
1.72948e-09
5.54622e-09
1.42863e-09
1.12307e-09
-3.67419e-09
-4.54797e-09
-1.80958e-10
-6.25217e-10
-7.06917e-10
-3.59577e-12
2.91672e-10
4.09036e-10
6.31589e-11
7.39933e-11
4.93088e-11
1.03826e-11
2.37749e-12
-3.61705e-11
-1.07757e-10
-1.48401e-10
-8.12778e-11
-1.48882e-13
-1.48441e-10
-3.87572e-09
-1.13578e-08
-6.49629e-09
-5.13088e-10
8.16277e-14
2.76083e-10
1.0134e-09
1.24531e-09
6.21067e-10
8.11218e-11
1.00503e-11
1.0826e-12
5.38431e-15
3.23432e-14
-1.12732e-13
-1.38824e-12
2.5835e-12
6.43651e-10
4.26751e-09
2.0104e-09
5.96321e-10
-2.72828e-10
-1.68957e-09
-1.31895e-13
-1.0461e-09
-8.01983e-10
-4.32283e-12
4.54852e-10
2.05357e-09
1.04597e-09
3.55786e-10
1.58648e-10
5.83896e-12
-4.88131e-11
-2.629e-10
-4.85528e-11
-1.2475e-10
-3.68295e-10
1.2835e-10
3.52987e-11
-8.19371e-11
-6.83185e-09
-1.05729e-08
-2.65303e-09
-2.52508e-11
9.80852e-11
7.24129e-10
7.67107e-10
4.52332e-10
1.20474e-10
3.55837e-11
1.44748e-11
2.63117e-11
2.46431e-11
-2.90503e-12
-6.46201e-12
4.34454e-13
1.90706e-10
2.11565e-09
1.67132e-09
6.04141e-11
2.70059e-10
-4.8156e-10
-1.05451e-12
-4.85819e-10
-2.81171e-10
-2.29773e-11
1.27567e-10
2.01304e-09
2.06626e-09
4.93692e-10
2.74381e-12
-3.10908e-10
-1.57532e-09
-9.33605e-10
-3.28923e-11
-4.69763e-11
1.46858e-10
3.50803e-10
4.24834e-10
1.01817e-11
-1.92379e-09
-1.0754e-08
-6.79714e-09
-5.79621e-10
2.80294e-12
3.95243e-10
3.1279e-10
1.33589e-10
5.58535e-12
1.45499e-12
1.35303e-11
1.71349e-10
2.48924e-10
1.5239e-11
-3.68608e-11
4.68475e-14
1.649e-10
1.30985e-09
1.43629e-09
2.45934e-11
5.83334e-11
-8.42507e-10
-3.57908e-10
-2.29988e-11
-1.14366e-10
-1.23656e-13
1.071e-10
8.60874e-10
8.82911e-10
5.35603e-11
-1.34821e-10
-1.76981e-09
-2.03964e-09
-3.77522e-10
2.23649e-11
1.49399e-10
8.38112e-10
7.99227e-10
-2.17458e-10
-4.99861e-12
-1.80204e-10
-5.99858e-09
-9.99996e-09
-2.80064e-09
-2.06995e-11
6.1217e-11
9.30626e-12
3.97324e-12
1.07006e-11
2.51739e-11
3.33622e-13
1.41154e-10
3.08454e-10
5.32377e-11
-1.05899e-10
3.06122e-12
1.22737e-10
9.75794e-10
8.98601e-10
1.01451e-13
-1.06327e-10
-2.05138e-09
-9.60658e-10
-1.22208e-11
-2.39085e-10
8.42939e-12
5.83446e-11
2.31322e-10
-4.19543e-10
-3.02857e-10
-1.2387e-10
-1.20536e-09
-6.97373e-10
2.78712e-10
7.77795e-11
1.25133e-11
1.48906e-10
6.05872e-10
9.26415e-10
3.95239e-10
1.8505e-12
-8.40241e-10
-6.37502e-09
-5.0321e-09
-6.48125e-10
-2.87812e-12
-9.14658e-11
-8.56842e-11
8.68973e-11
2.08698e-10
2.20499e-11
5.42917e-11
3.49068e-11
-2.9854e-10
-2.68871e-10
4.16842e-11
1.82793e-11
4.71604e-10
2.02245e-10
1.14816e-10
-1.93642e-10
-1.08472e-09
-1.96353e-10
-9.5203e-11
-2.49936e-10
-1.14691e-10
-1.11914e-11
-1.53305e-10
-6.43361e-10
-2.32715e-10
-2.9204e-11
-2.24619e-11
4.9562e-11
2.344e-13
6.73925e-13
-2.5324e-14
-2.84021e-12
2.51459e-10
2.67018e-09
4.28532e-09
1.00391e-09
8.55678e-11
-9.30161e-10
-2.94733e-09
-1.50882e-09
-2.84074e-10
-9.94511e-10
-8.29716e-10
-2.35954e-10
1.32707e-10
1.26625e-11
2.01296e-11
4.5251e-12
-3.62719e-11
1.30519e-10
2.72865e-10
4.38684e-12
2.59895e-10
1.68752e-10
7.1451e-12
5.02825e-11
-2.79955e-11
-1.07316e-11
-3.02769e-11
-1.79465e-10
-2.0404e-10
-9.26219e-11
-3.82116e-12
-4.46081e-11
-5.20016e-11
-3.15065e-13
7.01431e-14
1.36133e-11
1.27984e-11
-6.07888e-11
-1.28541e-12
-4.27282e-10
-1.11381e-10
4.0396e-09
8.37735e-09
4.41582e-09
1.36701e-10
-1.13957e-10
-1.65252e-09
-1.99241e-09
-1.2957e-09
-7.99427e-10
-4.58487e-10
-2.78528e-10
-8.13269e-11
-4.9008e-14
-1.89151e-11
1.14627e-11
1.00346e-10
3.02966e-10
4.31734e-10
7.60286e-11
2.12884e-10
7.74947e-10
5.58423e-10
1.22552e-10
1.02835e-14
-1.20306e-11
-4.82077e-11
-2.50112e-12
-2.90472e-11
-2.76042e-11
1.96555e-12
1.12345e-12
1.63432e-11
8.01781e-12
8.56168e-12
2.16623e-11
-7.15216e-11
-4.93028e-11
-3.38857e-11
-5.12312e-10
-7.96942e-10
1.20479e-09
5.74851e-09
5.6908e-09
8.50685e-10
-7.60358e-12
-1.27119e-09
-2.41915e-09
-1.64185e-09
2.36369e-10
2.32131e-10
2.3842e-11
-1.38795e-13
-2.02885e-11
-1.56003e-11
-2.30115e-14
-8.26621e-15
1.02471e-11
9.05643e-11
4.49731e-11
3.92333e-11
2.51734e-10
5.01241e-10
5.32415e-10
1.97921e-11
2.99751e-10
4.11342e-10
1.0803e-10
1.66897e-11
9.24792e-13
1.16579e-11
2.59884e-14
1.72675e-11
1.47269e-11
-1.88261e-11
-1.75757e-11
-1.16335e-12
-5.05599e-11
-3.69452e-11
-2.45199e-12
-3.42624e-11
9.77659e-11
7.08831e-10
1.64713e-09
8.90746e-10
1.81755e-11
-9.6746e-11
-5.75493e-10
-3.63481e-10
1.98382e-11
1.73604e-11
2.81734e-14
6.78141e-13
3.69488e-13
-3.73137e-11
-6.68316e-11
2.27621e-11
4.8703e-12
5.55073e-12
4.66947e-12
7.12716e-11
-4.74822e-11
4.72231e-11
2.27602e-10
1.42399e-11
7.34784e-10
8.69245e-10
2.72666e-10
5.36977e-11
5.69364e-12
6.01793e-13
-1.15597e-11
-2.03014e-10
-6.33533e-10
-5.62165e-10
-4.26572e-11
-2.36688e-10
-7.75701e-10
-5.52731e-10
-5.45399e-11
3.74052e-12
9.13144e-11
8.01022e-11
1.68605e-11
-1.71439e-11
-2.63409e-12
-3.76818e-11
-1.33982e-10
-7.9443e-11
-4.90677e-15
-2.80103e-12
1.83979e-12
5.03458e-14
2.0186e-11
1.55971e-10
3.45761e-10
2.44412e-10
3.77075e-12
1.80461e-10
1.32441e-10
4.4642e-11
3.42793e-10
1.69884e-10
7.5853e-12
-1.87405e-13
-1.79459e-11
-1.79812e-10
-3.53447e-10
-2.73855e-10
-1.17345e-10
-5.68646e-11
-5.91107e-11
-5.16576e-11
2.20654e-11
2.91506e-11
3.86444e-13
-9.48632e-11
-5.06378e-10
-4.49281e-10
1.29883e-11
5.2554e-12
4.40633e-10
3.90508e-10
-9.9119e-11
-4.92313e-11
-2.00275e-11
-1.50229e-10
-1.49898e-10
-3.87619e-11
-8.73994e-11
-4.10733e-11
-1.83635e-10
-2.28235e-11
4.1998e-12
2.61085e-10
9.55504e-10
6.83703e-10
6.1929e-11
6.45402e-11
2.04808e-10
9.7175e-11
7.01452e-13
8.47677e-11
1.63632e-10
1.8137e-10
1.22957e-10
4.15114e-11
3.04572e-12
-4.28087e-13
-3.50215e-11
-2.02e-10
-4.81709e-10
-5.43086e-10
-2.33023e-10
-1.61442e-11
-9.17528e-16
-2.95995e-11
-9.43368e-11
2.41066e-10
5.77848e-10
1.23128e-10
1.95033e-10
6.49609e-10
-1.48946e-10
-5.76667e-10
-1.04988e-10
-9.34235e-11
-4.97347e-10
-4.71024e-10
-4.08429e-12
-7.33093e-14
-4.73551e-12
-1.32708e-11
-3.83835e-12
-2.08424e-12
-1.64189e-11
-2.29336e-11
-2.00955e-11
-1.61436e-11
-2.6787e-11
-6.13883e-11
-1.21579e-10
-2.11921e-10
-3.61895e-10
-6.06526e-10
-8.9091e-10
-9.23529e-10
-4.50796e-10
-2.31499e-12
-1.91714e-10
-1.25635e-10
-1.41414e-11
-2.88737e-11
-1.42981e-10
-1.76228e-10
-1.39484e-10
-9.14801e-11
-4.58233e-11
-1.75381e-11
-9.43175e-12
-1.62425e-11
-4.96138e-11
-1.0389e-10
-2.23763e-11
1.23163e-10
2.06847e-11
5.16905e-13
-1.19781e-13
-2.00318e-12
-9.89857e-12
-2.95095e-11
-4.78259e-11
-6.33517e-12
-5.71374e-11
-1.8966e-10
-1.58144e-10
-4.94073e-11
-4.77461e-12
-3.58107e-12
-8.50623e-11
-4.64679e-10
-1.13794e-09
-1.90326e-09
-2.81384e-09
-4.0798e-09
-5.4372e-09
-5.34957e-09
-2.44328e-09
-1.74817e-12
-2.44826e-09
-1.57241e-09
-4.5726e-11
-7.64102e-10
-3.42476e-09
-3.90473e-09
-2.38713e-09
-1.0458e-09
-3.98037e-10
-1.47386e-10
-6.55805e-11
-3.98621e-11
-4.84967e-11
-1.66707e-10
-3.19773e-10
8.34889e-11
4.22579e-12
1.54212e-10
1.25589e-11
-1.0118e-11
-3.26186e-11
-6.00346e-11
-6.03412e-11
-7.00937e-14
-1.81774e-10
-3.46158e-10
-1.56405e-10
-3.02298e-12
-5.17059e-11
-1.00732e-10
-1.02914e-11
-8.57728e-11
-4.26616e-10
-7.45513e-10
-9.87166e-10
-1.37727e-09
-1.99431e-09
-2.3063e-09
-1.25136e-09
-2.7644e-12
-1.90147e-09
-1.65684e-09
1.6363e-10
-1.61847e-10
-4.21898e-09
-5.65995e-09
-2.55938e-09
-5.26658e-10
-2.55724e-11
-2.07101e-11
-6.60925e-11
-6.73148e-11
-5.97623e-11
-2.62299e-11
-4.15572e-12
-2.12509e-12
1.35189e-13
3.35753e-10
3.01945e-10
-9.66657e-12
-5.49171e-12
-3.30992e-11
-3.07111e-11
-4.51752e-13
-1.78771e-10
-3.17205e-10
-1.01856e-10
-3.07742e-12
-1.06699e-10
-1.66496e-10
-6.13486e-11
-1.38446e-12
-8.36329e-11
-1.54918e-10
-1.67068e-10
-2.41448e-10
-4.11445e-10
-6.04806e-10
-5.4927e-10
-1.44774e-11
-6.164e-10
1.14343e-09
2.98838e-09
1.46554e-10
-1.69349e-09
-4.77809e-09
-1.42628e-09
-4.19828e-11
-7.66514e-11
-3.3766e-10
-5.60915e-10
-5.24278e-10
-3.55607e-10
-1.69073e-10
5.02923e-12
7.35496e-12
1.53587e-11
5.29494e-10
1.01952e-09
1.98463e-10
1.00601e-10
3.06515e-12
-2.42597e-12
-2.54168e-15
-1.55326e-10
-3.37303e-10
-1.07768e-10
-1.22303e-11
-1.74534e-10
-2.35204e-10
-1.04903e-10
-7.4903e-12
-1.40139e-11
-4.30541e-11
-5.75868e-11
-1.10736e-10
-1.58566e-10
-1.72658e-10
-4.38579e-10
-3.053e-10
-6.83217e-11
1.70135e-09
8.01614e-09
8.95486e-11
1.03022e-09
-5.66861e-09
-1.79492e-09
-1.9595e-11
-4.24955e-12
-1.48766e-10
-5.43747e-10
-6.40634e-10
-4.19148e-10
-1.45696e-10
1.69077e-10
2.14556e-10
1.31932e-10
7.00094e-10
1.88596e-09
8.84135e-10
5.10636e-10
1.04523e-10
-1.04547e-11
-2.54177e-12
-1.55546e-10
-4.55737e-10
-1.94699e-10
-1.0111e-11
-3.59928e-10
-5.948e-10
-3.43169e-10
-9.39777e-11
-1.09795e-11
-2.94552e-15
-6.93323e-12
-4.74621e-11
-2.34349e-11
1.53595e-10
-2.43735e-10
-7.73916e-10
-7.67288e-11
2.96745e-10
8.45892e-09
1.64902e-09
2.63384e-09
-7.06118e-09
-3.6775e-09
-1.16653e-10
-3.31899e-11
-1.60359e-10
-5.52917e-10
-6.60286e-10
-3.84857e-10
-1.58512e-10
5.44783e-11
3.58039e-10
4.08003e-10
8.21307e-10
2.25962e-09
1.96141e-09
1.37306e-09
5.42334e-10
-1.50033e-11
-2.49292e-11
-1.47438e-10
-6.07016e-10
-3.75843e-10
-4.41725e-12
-3.4882e-10
-1.05906e-09
-9.31157e-10
-4.00414e-10
-1.26166e-10
-3.12727e-11
-1.6394e-12
-7.40012e-12
9.35301e-11
3.95462e-10
-1.55725e-10
-9.43815e-10
-3.56926e-10
3.75715e-11
5.5286e-09
2.87565e-09
2.85362e-09
-5.21972e-09
-4.15379e-09
-2.63221e-10
-4.84439e-11
-2.9795e-10
-5.53709e-10
-4.05431e-10
-7.7643e-11
-2.34624e-12
-9.32089e-12
1.28416e-10
5.55994e-10
1.09474e-09
2.40074e-09
2.78891e-09
2.11034e-09
1.6054e-09
2.32943e-10
-1.07916e-10
-9.33483e-11
-7.20803e-10
-6.63158e-10
-1.3323e-10
-3.85835e-11
-6.66325e-10
-1.38621e-09
-1.23263e-09
-6.12456e-10
-1.86606e-10
-2.71131e-11
1.50967e-16
1.14783e-10
4.6875e-10
-2.75888e-10
-8.72199e-10
-3.45774e-10
8.80529e-12
2.46495e-09
1.77089e-09
2.09879e-09
-2.04766e-09
-2.19798e-09
-1.63456e-10
-4.41628e-11
-2.8657e-10
-3.4895e-10
-3.96523e-11
-3.16671e-10
-1.16495e-09
-5.28906e-10
5.11992e-13
2.2327e-10
1.19185e-09
2.64523e-09
3.31562e-09
2.41512e-09
2.71801e-09
1.23151e-09
-1.94894e-10
-3.88042e-11
-8.02155e-10
-9.79924e-10
-4.52674e-10
-7.12398e-11
-3.39477e-11
-7.55829e-10
-2.23516e-09
-2.39666e-09
-1.10575e-09
-1.88692e-10