/*--------------------------------*- C++ -*----------------------------------*\
| =========                 |                                                 |
| \\      /  F ield         | OpenFOAM: The Open Source CFD Toolbox           |
|  \\    /   O peration     | Version:  5.0                                   |
|   \\  /    A nd           | Web:      www.OpenFOAM.org                      |
|    \\/     M anipulation  |                                                 |
\*---------------------------------------------------------------------------*/
FoamFile
{
    version     2.0;
    format      ascii;
    class       volScalarField;
    location    "50.4676134421789371";
    object      WWUMean;
}
// * * * * * * * * * * * * * * * * * * * * * * * * * * * * * * * * * * * * * //

dimensions      [0 3 -3 0 0 0 0];

internalField   nonuniform List<scalar> 
60000
(
1.13964e-12
1.7381e-11
1.19947e-11
4.32734e-13
3.44996e-12
8.00545e-13
-4.65281e-12
-4.53733e-12
-2.42163e-13
-6.37667e-12
-1.20255e-11
-4.96739e-12
-1.11233e-12
-5.18516e-13
-1.70786e-13
-2.16702e-12
-3.94119e-12
-1.51567e-11
-7.09682e-11
-1.60507e-10
-1.27503e-10
-1.60633e-11
-4.90461e-11
-1.67828e-10
-2.1569e-10
-2.07999e-10
-2.14302e-10
-2.03432e-10
-9.16639e-11
-9.4033e-12
-9.71707e-12
-8.89233e-11
-1.77261e-10
-1.90162e-10
-5.67555e-11
4.09057e-11
1.06438e-13
-5.75582e-12
-2.53242e-11
-1.89621e-11
-1.5691e-10
4.29289e-12
4.05338e-12
1.05192e-11
5.94127e-11
2.66627e-11
-3.29171e-11
-5.04062e-12
-8.02938e-11
-4.30528e-10
-5.20301e-10
-2.1633e-10
-2.39821e-11
-5.4858e-13
-3.75721e-11
-1.84375e-10
-3.67264e-10
-5.00189e-10
-6.5072e-10
-5.67384e-10
-6.95426e-11
-5.31511e-10
-2.32175e-09
-2.77065e-09
-1.73739e-09
-6.82521e-10
-2.80241e-10
-2.54974e-10
-2.17605e-10
-3.1835e-11
-6.06544e-11
-5.14031e-10
-1.18093e-09
-1.46028e-09
-1.03134e-09
-1.41128e-10
4.3738e-12
-4.31091e-11
-4.1376e-10
-4.31137e-10
-4.36344e-10
-9.06245e-11
-1.09478e-12
2.86604e-12
2.86797e-11
7.54769e-11
3.19781e-12
-1.32242e-11
-6.86016e-11
-6.70849e-10
-1.02204e-09
-5.45426e-10
-8.39007e-11
-3.10185e-13
-4.09478e-11
-2.36382e-10
-4.80327e-10
-4.90847e-10
-4.1423e-10
-2.44031e-10
-5.29437e-12
-1.11561e-09
-4.57318e-09
-4.68839e-09
-2.1115e-09
-3.40155e-10
-3.6285e-12
-2.5828e-11
-4.38066e-12
-1.08389e-12
-1.65695e-11
-1.18195e-10
-4.22927e-10
-7.3242e-10
-6.96833e-10
-2.62399e-10
1.25788e-12
-6.52928e-13
-2.49321e-10
-6.37188e-10
-4.63946e-10
-1.14244e-10
1.50809e-13
5.4132e-12
3.07992e-11
1.1246e-10
1.85529e-10
3.36411e-11
-4.2311e-12
-3.9535e-10
-1.01014e-09
-5.61075e-10
-4.94002e-11
2.73807e-13
2.05319e-11
-1.50617e-10
-4.06365e-10
-2.79083e-10
5.55161e-12
1.10022e-10
9.02724e-13
-5.74412e-10
-4.58395e-09
-4.85634e-09
-1.71871e-09
-1.07238e-10
-9.07471e-11
-1.88359e-10
-7.57742e-11
1.57507e-12
2.81387e-11
6.49059e-11
5.02828e-11
-7.68886e-11
-1.6837e-10
1.16015e-11
9.46315e-11
7.66767e-13
3.1072e-12
-3.50734e-10
-4.6226e-10
-2.31277e-10
2.7141e-11
2.2853e-12
4.22289e-11
1.22402e-10
3.54142e-10
2.84756e-10
9.28354e-12
-4.89827e-11
-9.54817e-10
-9.93666e-10
-9.45694e-11
5.93703e-12
8.69043e-11
-1.00733e-10
-5.4949e-10
-2.78101e-10
2.93856e-10
6.56954e-10
4.28439e-11
1.35467e-10
-4.72104e-09
-6.56838e-09
-2.20632e-09
-1.08745e-10
-9.28742e-11
-1.97245e-10
-9.55288e-11
2.65032e-11
7.15594e-11
1.00679e-10
1.46642e-10
2.04846e-10
2.47717e-10
3.23659e-10
3.72455e-10
8.50023e-11
1.22844e-11
-3.81977e-11
-1.58675e-10
-4.77884e-10
-7.05748e-11
1.03294e-11
1.37155e-11
6.56049e-11
2.61106e-10
5.30411e-10
1.92087e-10
3.20006e-11
-1.95548e-10
-1.30126e-09
-5.32979e-10
1.81604e-11
4.47641e-11
-3.40341e-10
-1.2063e-09
-5.44413e-10
1.48264e-10
8.63746e-10
3.08539e-10
5.60429e-10
-4.66123e-09
-9.33438e-09
-2.88125e-09
-1.22722e-10
-5.461e-11
-1.4278e-10
-1.20111e-10
-5.42833e-11
4.41752e-12
3.19477e-11
4.72832e-11
1.01699e-10
2.95192e-10
5.27289e-10
5.26753e-10
3.17831e-10
5.208e-11
7.44785e-12
2.0517e-12
-2.005e-10
-2.4557e-10
-1.84709e-11
3.41166e-13
1.02978e-11
8.17995e-11
3.79547e-10
4.64103e-10
1.5383e-11
4.04101e-10
-1.07958e-10
-6.41149e-10
-6.70548e-11
-4.27908e-11
-1.26452e-09
-2.63612e-09
-8.27286e-10
-1.0124e-12
2.96174e-10
5.25987e-10
6.18943e-10
-2.31186e-09
-8.5205e-09
-2.14526e-09
-8.33199e-11
-2.33382e-11
-8.28619e-11
-8.79351e-11
-6.57094e-11
-3.02188e-11
-5.94441e-12
1.23159e-12
9.83054e-12
1.07682e-10
4.76474e-10
6.55745e-10
4.3204e-10
2.27461e-10
4.32216e-11
2.5701e-11
9.45403e-12
-4.70031e-11
-3.61129e-11
-7.52126e-12
-1.07398e-14
2.66594e-12
8.68819e-11
3.73718e-10
1.4802e-10
3.01817e-10
1.27458e-09
1.45693e-10
-9.31414e-11
-2.85898e-10
-3.22931e-09
-3.8565e-09
-8.69912e-10
-5.78654e-12
7.2795e-13
1.56346e-10
4.59813e-10
1.34272e-09
-3.45167e-09
-9.05023e-10
-6.86414e-11
-1.90104e-12
-3.48326e-11
-6.21206e-11
-5.64664e-11
-2.02672e-11
-3.95055e-13
-9.43894e-12
-6.00048e-14
5.67053e-12
1.98335e-10
5.69196e-10
5.07653e-10
3.15919e-10
2.08493e-10
2.16302e-10
2.58645e-12
1.04686e-10
6.75525e-11
-7.9423e-12
-1.74091e-12
-8.72511e-13
-1.72592e-11
4.85096e-11
1.58072e-10
1.30182e-10
1.38445e-09
5.75207e-10
-8.66914e-12
-9.88607e-10
-4.14727e-09
-3.03297e-09
-5.33938e-10
-1.10717e-12
5.23599e-11
2.25077e-11
3.83657e-10
2.95771e-09
6.31031e-10
-1.27876e-10
-8.57156e-11
-1.87158e-11
-5.33274e-12
-4.66884e-11
-4.67833e-11
-5.02858e-12
-3.34439e-11
-1.30761e-10
-8.06621e-11
6.3718e-13
3.83516e-11
3.26001e-10
4.87946e-10
4.23939e-10
3.5559e-10
4.79034e-10
1.28784e-10
8.00471e-11
1.47219e-10
-6.29581e-12
-2.40437e-12
-1.13614e-11
-4.75509e-11
-7.44938e-11
3.23857e-11
6.6069e-11
1.20792e-09
3.52787e-10
-3.06316e-11
-1.74024e-09
-3.09423e-09
-1.43952e-09
-2.15147e-10
-5.92634e-13
7.35215e-12
1.1688e-10
2.94027e-10
1.67979e-09
1.34146e-09
1.86176e-10
-1.5208e-10
-1.20149e-10
-2.1071e-12
-3.87813e-11
-3.76814e-11
-3.61294e-12
-1.82064e-10
-4.50275e-10
-3.30434e-10
-4.41282e-11
2.34242e-12
1.50096e-10
3.79267e-10
4.72787e-10
5.15287e-10
5.63919e-10
3.45361e-10
2.98896e-11
1.64623e-10
-3.16546e-11
-1.05428e-11
-1.42162e-11
-1.082e-10
-1.70832e-10
-3.56176e-11
2.74005e-11
1.02465e-09
3.80833e-10
9.9251e-11
-1.46198e-09
-2.05637e-09
-7.94891e-10
-8.75359e-11
-1.91081e-13
-1.26274e-12
2.09204e-11
7.08232e-11
2.52909e-10
3.92446e-10
2.53214e-10
-1.8101e-10
-2.22741e-10
-1.0174e-11
-3.63148e-11
-3.37334e-11
-3.00234e-11
-5.28362e-10
-1.13041e-09
-7.99058e-10
-1.39258e-10
2.25706e-13
7.48271e-11
2.53352e-10
3.67249e-10
4.81489e-10
3.0216e-10
3.21665e-10
6.01468e-12
1.01872e-10
-4.60216e-12
1.43756e-11
3.58029e-12
-9.28831e-13
-1.45545e-10
-8.87249e-11
3.249e-12
6.96068e-10
6.97942e-10
1.02162e-10
-4.77165e-10
-1.5327e-09
-4.94563e-10
-4.82348e-12
-1.1113e-12
-2.26012e-13
4.12012e-12
1.28342e-11
9.22373e-12
3.14325e-11
2.17578e-10
-7.02151e-11
-1.61406e-10
-6.91776e-12
-4.08964e-11
-4.51897e-11
-3.27513e-11
-8.17991e-10
-2.18308e-09
-1.79916e-09
-3.77008e-10
4.17765e-12
4.7507e-11
1.88778e-10
2.43583e-10
2.7448e-10
6.51229e-11
5.67045e-11
1.59423e-12
2.54093e-11
7.482e-11
6.98555e-11
2.45578e-12
4.46661e-11
-8.88427e-12
-1.02597e-10
-5.06388e-13
4.31266e-10
1.15611e-09
1.11345e-11
1.35512e-10
-8.27752e-10
-1.1628e-10
-9.60152e-11
-2.70621e-11
-3.11914e-11
7.30442e-11
1.90353e-10
1.17694e-10
5.3271e-12
2.08327e-10
2.037e-10
1.27351e-11
-4.19815e-13
-5.78107e-11
-8.28819e-11
-3.10198e-12
-5.81287e-10
-2.76327e-09
-3.59825e-09
-1.26138e-09
-1.50602e-11
1.53454e-11
1.60837e-10
2.16636e-10
2.13307e-10
1.13823e-10
-8.73444e-11
-1.84904e-11
8.31064e-13
3.3776e-11
7.36359e-11
6.60998e-11
1.87604e-12
1.39909e-11
-1.18407e-10
-3.93186e-11
8.64878e-11
1.21414e-09
2.13341e-10
2.65701e-10
-1.19377e-10
-1.94008e-11
-5.38039e-10
-1.46762e-10
-1.86467e-10
1.45292e-10
6.94664e-10
2.01255e-10
6.28862e-12
2.83181e-10
3.86896e-10
5.67813e-11
-1.11405e-12
-7.38327e-11
-1.25607e-10
-4.55443e-11
-8.07526e-11
-1.66268e-09
-4.92543e-09
-3.6575e-09
-4.23461e-10
6.47005e-12
1.0099e-10
2.16538e-10
2.42795e-10
1.29555e-10
1.04635e-11
-2.30791e-12
1.21926e-11
2.83085e-13
3.10757e-11
1.08674e-10
7.62301e-11
8.3163e-13
-3.50921e-11
-7.81341e-11
1.60297e-12
4.06072e-10
3.81488e-10
1.73093e-11
2.10304e-12
-1.88083e-10
-7.25836e-10
-1.9848e-10
-1.7275e-10
-1.55132e-10
1.75324e-09
1.05819e-09
2.35845e-11
2.84457e-10
3.06546e-10
2.06309e-11
-1.22759e-12
-4.53279e-11
-1.13164e-10
-1.13526e-10
-4.79269e-11
-2.70009e-10
-3.59278e-09
-6.51754e-09
-2.34213e-09
1.21663e-11
1.71563e-11
1.78104e-10
1.98717e-10
1.22063e-10
6.33546e-11
3.38769e-11
1.6534e-11
9.25489e-12
1.88155e-12
4.57686e-12
1.82018e-11
6.734e-12
1.27963e-12
3.07029e-11
6.25196e-11
3.64963e-11
3.04794e-10
1.25476e-10
9.90684e-12
-1.04113e-10
-1.51295e-10
-4.95437e-11
-3.19631e-11
-3.5956e-10
2.77534e-10
1.06469e-09
1.07167e-10
1.86592e-10
2.25612e-10
3.11545e-11
1.72987e-12
1.3137e-11
8.84093e-11
8.70149e-11
-1.14671e-10
-2.07719e-11
-1.27033e-09
-6.3715e-09
-5.94199e-09
-9.7085e-10
1.66074e-11
7.93112e-11
1.74131e-10
1.10018e-10
4.2706e-11
9.16098e-13
3.65785e-12
4.25808e-12
4.35154e-11
2.07286e-11
7.93093e-14
-1.17998e-12
4.18759e-14
3.9717e-11
1.14596e-10
1.9613e-12
2.07973e-10
1.50186e-10
-3.13503e-12
-3.53197e-14
-4.1221e-12
-1.76266e-11
-2.33468e-12
-8.61504e-11
-3.65411e-10
-2.68871e-10
-2.63682e-11
-8.58155e-11
-1.45422e-10
9.36488e-11
2.5734e-11
5.38052e-11
2.81418e-10
3.83083e-10
1.19193e-10
-1.43286e-10
-9.71255e-11
-3.15615e-09
-6.95733e-09
-3.68324e-09
-3.6346e-10
-4.34972e-13
6.78171e-11
5.30893e-11
3.21923e-11
1.0474e-12
1.69276e-11
1.16697e-12
6.438e-11
3.7064e-11
-2.20226e-11
-1.05248e-12
-9.87962e-14
8.20545e-12
6.53355e-11
4.07924e-12
6.13605e-11
1.62156e-11
-4.07307e-12
-1.81712e-11
-2.86874e-11
-1.03979e-10
-8.00889e-12
-8.78035e-12
-2.74613e-10
-6.0853e-10
-1.09121e-10
-1.07497e-10
-8.53014e-11
1.23499e-10
1.21894e-11
1.74049e-11
5.00708e-11
1.04457e-10
3.06296e-10
3.6949e-10
-1.33264e-12
-3.76868e-10
-3.72128e-09
-4.94429e-09
-1.67482e-09
-5.79931e-11
-1.82622e-11
-4.23819e-14
2.53681e-11
1.3908e-10
1.26289e-10
5.73974e-12
3.23797e-11
-1.34584e-10
-3.60945e-10
-1.38373e-10
-1.65775e-12
4.88227e-12
3.78319e-13
2.27344e-11
3.4737e-11
1.97061e-11
-3.14123e-11
-4.77659e-12
-2.12817e-10
-2.72622e-10
-4.16265e-11
2.1592e-13
-2.10328e-11
-1.48162e-10
-6.13763e-11
3.19638e-12
9.13515e-12
1.32696e-11
1.03251e-12
-1.56098e-11
-3.66015e-11
-6.63714e-11
1.39423e-10
1.85181e-09
1.34371e-09
1.84787e-11
-3.94501e-10
-2.32677e-09
-1.90948e-09
-3.83758e-10
-9.68132e-12
-1.35464e-10
6.57931e-11
4.59603e-10
3.08427e-10
1.01225e-11
1.60488e-11
-1.02409e-10
-2.08885e-10
-1.20119e-10
1.91331e-12
4.16148e-11
1.94598e-10
4.32534e-11
1.46137e-11
8.36084e-12
-1.42252e-11
-3.22453e-12
-5.74449e-11
-7.98575e-11
-3.22496e-11
6.88393e-12
2.14281e-12
3.40018e-12
1.83342e-11
1.3898e-11
2.68042e-12
2.21785e-11
-1.42662e-10
-2.43828e-10
-9.35177e-12
-4.73369e-10
-1.05779e-09
1.33736e-09
3.01426e-09
7.62685e-10
2.64156e-11
-2.75824e-10
-8.62045e-10
-5.58133e-10
-2.24825e-10
-3.67976e-11
-5.7463e-12
4.20752e-11
2.78207e-11
1.01908e-12
5.50392e-12
4.8612e-11
1.75758e-10
2.44971e-10
8.55334e-11
8.90267e-12
2.0565e-10
2.93326e-10
1.16806e-10
4.60901e-12
-3.34186e-12
-8.76762e-13
-7.53636e-12
-8.84874e-12
-3.19163e-12
-2.70622e-14
3.20854e-13
1.43674e-12
1.52893e-13
1.65833e-13
4.95553e-12
1.0574e-11
-1.79237e-11
-3.7752e-11
-2.21646e-12
-1.4423e-10
-7.88065e-10
-9.16878e-10
5.19656e-10
7.87967e-10
3.22585e-11
4.53617e-11
-1.96994e-10
-2.32606e-10
-9.31312e-11
1.20111e-10
8.42073e-11
3.31399e-11
6.26132e-13
-2.60678e-12
-6.87512e-14
5.02529e-13
3.01949e-11
9.31488e-11
5.29738e-11
2.97989e-13
-3.55744e-11
-1.94215e-10
-8.57449e-11
1.20385e-10
3.90435e-11
9.15661e-12
1.81297e-11
-3.98731e-11
-3.55581e-11
-3.54972e-12
1.04667e-11
2.03067e-11
3.17471e-11
2.61532e-11
5.6416e-12
-3.93072e-14
-1.1464e-11
-5.22208e-11
-4.86619e-11
-1.18249e-12
-9.10899e-11
-2.14566e-10
-2.30872e-11
2.09729e-10
9.00406e-11
1.79849e-12
2.17448e-11
1.19331e-11
8.3465e-11
8.72266e-13
1.43317e-12
6.10383e-12
4.88673e-13
6.38801e-12
2.47156e-11
3.17322e-11
1.44056e-12
2.77517e-11
1.94488e-11
6.01569e-13
-7.71738e-11
-2.36037e-10
-4.13894e-11
9.92043e-11
2.55577e-12
1.69317e-10
2.75166e-10
1.35651e-10
3.99388e-11
2.09051e-11
2.50115e-11
2.38718e-11
-3.65305e-11
-1.22557e-10
-8.03023e-11
-3.45913e-12
-1.92161e-10
-4.04441e-10
-2.86716e-10
-6.77337e-11
-2.80066e-12
-5.00213e-11
-4.38827e-11
-1.70352e-11
-3.73762e-12
-1.25014e-12
-1.85049e-11
-2.92639e-11
-9.21816e-12
-1.16311e-13
-1.70528e-12
-1.36357e-12
1.03058e-14
5.36884e-12
8.62246e-11
2.09879e-10
7.70277e-11
3.80768e-11
1.83481e-10
2.9195e-11
4.21603e-11
3.99641e-11
-5.86568e-12
2.99422e-11
8.61531e-13
5.18334e-11
8.23058e-11
2.64724e-11
-2.26468e-11
-6.06883e-11
-1.10401e-10
-1.55446e-10
-1.50908e-10
-7.7056e-11
-6.64565e-12
-2.67615e-11
-1.53041e-10
-2.56979e-10
-1.67352e-10
-2.08027e-11
4.73396e-13
6.33592e-11
9.83323e-11
-2.82301e-11
-2.41174e-11
-1.39078e-12
-1.94159e-11
-1.64007e-11
-3.48804e-12
-1.13201e-12
-7.58863e-11
-1.60887e-10
-6.20557e-11
7.26337e-12
8.82834e-11
5.32699e-10
4.8403e-10
3.92681e-11
9.01979e-11
2.00991e-10
9.4557e-11
1.25865e-12
8.02537e-11
1.66715e-10
1.22386e-10
4.32902e-11
5.84147e-12
-3.58431e-13
-1.88571e-12
-2.69937e-11
-1.05954e-10
-2.16385e-10
-2.62967e-10
-1.68048e-10
-3.96095e-11
-1.29355e-12
-3.47217e-11
-1.50984e-12
1.96272e-10
2.89083e-10
8.30464e-11
2.03905e-11
8.55746e-11
-1.24376e-10
-1.68466e-10
-1.4681e-11
-5.10186e-11
-1.26852e-10
-5.82952e-11
-1.1455e-12
-8.17437e-13
-9.07811e-15
-8.74479e-13
-2.61443e-12
-4.04432e-12
-3.32612e-12
-8.54523e-14
-2.74499e-12
-1.09128e-11
-1.76282e-11
-2.45756e-11
-3.44129e-11
-4.29549e-11
-4.59659e-11
-5.21175e-11
-5.02899e-11
-7.34043e-12
-6.27113e-11
-2.54171e-10
-2.55213e-10
-9.47675e-11
-4.75797e-12
-1.77198e-10
-4.16575e-10
-5.52757e-10
-4.98558e-10
-3.24683e-10
-1.56075e-10
-3.13672e-11
-2.6014e-11
-1.57587e-10
-2.18142e-10
-1.11702e-10
-7.76951e-12
3.35289e-11
2.33006e-11
3.65103e-12
-2.00414e-13
-2.18239e-14
-1.50773e-11
-4.40049e-12
-7.17091e-13
-1.18284e-13
-4.70948e-13
-6.55273e-12
-3.01621e-11
-1.0029e-11
-9.43514e-12
-9.54921e-11
-2.15105e-10
-2.5308e-10
-2.13075e-10
-1.49518e-10
-1.09545e-10
-1.59577e-10
-3.15708e-10
-1.72817e-10
-2.07787e-10
-2.26368e-09
-2.21286e-09
-4.8485e-10
-2.17714e-10
-2.50047e-09
-4.00017e-09
-3.522e-09
-2.25468e-09
-1.20724e-09
-5.02791e-10
-9.22504e-11
-8.54337e-11
-5.35398e-10
-9.87938e-10
-8.30046e-10
-2.5203e-10
3.38316e-11
1.06446e-10
1.16203e-11
3.11707e-12
-7.78637e-12
-5.38829e-11
-1.45956e-11
-2.11055e-12
-2.15441e-12
-7.93859e-12
-3.37943e-12
-1.19343e-11
-4.13915e-11
-3.78653e-12
-3.51996e-11
-2.01048e-10
-2.75079e-10
-1.55078e-10
-3.28035e-11
-8.72996e-13
-1.17335e-12
-5.03783e-11
-1.97059e-10
-9.11754e-12
-8.0828e-10
-1.39088e-09
-1.94162e-10
-8.20201e-11
-2.93677e-09
-4.68603e-09
-2.68165e-09
-7.48876e-10
-1.11894e-10
-5.87492e-12
-1.49961e-11
-1.13779e-10
-3.22765e-10
-5.22195e-10
-5.41209e-10
-2.71621e-10
-2.14696e-11
6.07863e-11
2.90005e-11
1.66996e-11
-1.32684e-11
-7.037e-11
-1.96028e-11
-6.97186e-13
-1.65978e-13
-4.54055e-12
-4.48993e-12
-2.81456e-12
-3.64949e-11
-1.13329e-11
-1.45841e-13
-5.86662e-11
-1.68665e-10
-7.25079e-11
-1.41293e-12
-1.17587e-10
-1.90646e-10
-2.29874e-11
-6.35708e-11
-7.44051e-11
-5.52755e-11
7.44303e-10
1.65533e-09
3.44986e-11
-1.78415e-09
-4.65734e-09
-2.02875e-09
-1.96298e-10
-1.11924e-11
-4.91952e-11
-5.75721e-11
-1.15898e-10
-2.25735e-10
-3.05692e-10
-2.94021e-10
-1.16688e-10
8.25297e-11
1.10527e-10
9.2812e-11
1.70888e-12
4.64108e-11
-3.36119e-12
-3.68405e-11
-8.34683e-13
-3.41092e-14
-2.40794e-12
-5.71392e-12
-4.64721e-14
-4.10657e-12
3.60255e-11
1.09788e-11
1.00129e-11
-1.13326e-10
-8.43069e-11
-8.94611e-12
-3.25736e-10
-5.60308e-10
-1.40307e-10
-3.01436e-11
-1.46978e-10
-1.81644e-12
1.07523e-09
4.44645e-09
6.05032e-11
-2.45702e-10
-6.01701e-09
-2.75594e-09
-2.02567e-10
-2.02958e-11
-2.98246e-11
1.56709e-11
-8.34021e-12
-7.96605e-11
-1.16968e-10
-8.70598e-11
7.46941e-11
3.9429e-10
3.99794e-10
2.9695e-10
5.94409e-11
9.96943e-11
2.31871e-10
-6.0057e-11
-9.38174e-12
-2.15149e-13
-1.50004e-12
-1.29168e-11
-3.41474e-12
2.13396e-12
9.3053e-11
9.72784e-11
3.17056e-13
-4.36232e-11
-8.83454e-11
-2.43665e-11
-6.8974e-10
-1.10622e-09
-2.72357e-10
-1.30772e-11
-2.01246e-10
-5.60176e-11
2.3246e-10
4.94059e-09
5.05263e-10
1.14386e-09
-7.24754e-09
-3.73477e-09
-3.0287e-10
-1.11239e-11
-7.23029e-11
-7.58602e-11
-8.02745e-11
-9.13075e-11
-7.30293e-11
-2.897e-11
9.58984e-11
4.45445e-10
7.84026e-10
7.29914e-10
4.3842e-10
1.26465e-11
3.17844e-10
1.40531e-10
-3.66444e-11
-2.03873e-13
-1.60596e-13
-1.59507e-11
-2.17681e-11
4.57631e-12
3.24758e-11
2.52415e-10
5.00943e-11
-1.86203e-13
-1.783e-11
-8.56967e-11
-1.01153e-09
-1.18125e-09
-1.61942e-10
-1.69383e-11
-1.57558e-10
-1.62041e-10
6.39711e-12
3.06203e-09
8.53167e-10
2.14471e-09
-5.21624e-09
-2.62018e-09
-1.65755e-10
-8.91221e-12
-5.49711e-11
-6.16521e-11
-4.68803e-11
-1.87291e-11
-2.19426e-12
-2.69871e-12
2.15717e-11
3.30471e-10
8.83679e-10
1.18328e-09
1.16325e-09
2.16298e-10
2.13851e-11
5.57754e-10
-8.36307e-12
-4.10391e-13
-8.70724e-12
-3.74735e-12
-6.02472e-11
-3.12396e-11
6.9091e-11
8.83307e-11
2.58997e-10
-8.72062e-11
-9.13946e-11
-3.64267e-10
-1.07978e-09
-5.98344e-10
-1.93205e-11
-3.01588e-11
-8.17868e-11
-1.37931e-10
6.25685e-11
9.6334e-10
5.04696e-10
2.48541e-09
-1.3741e-09
-8.33448e-10
-3.06765e-11
-2.07955e-11
-5.52429e-11
-4.00725e-11
-3.32406e-12
-5.8227e-11
-2.955e-10
-2.68372e-10
-1.21055e-11
7.10679e-11
6.73338e-10
1.28265e-09
1.77907e-09
1.22401e-09
4.71511e-10
3.63776e-10
1.57928e-10
-4.87052e-13
-4.48376e-11
-7.65433e-12
-4.9426e-11
-2.03578e-10
1.93946e-10
2.9467e-10
1.63509e-10
-1.61716e-11
-9.50347e-10
-1.20853e-09
-9.3629e-10
-1.80724e-10
-4.01395e-12
-2.72797e-11
-3.27193e-11
-4.42423e-11
1.45375e-10
3.52972e-11
5.58491e-11
2.0836e-09
8.15055e-10
-2.78668e-11
-5.22341e-13
-4.34679e-11
-6.35911e-11
-3.52976e-11
-2.28139e-12
-2.36095e-10
-1.06035e-09
-1.46973e-09
-4.73777e-10
6.64184e-12
2.4413e-10
9.94368e-10
1.75821e-09
2.28715e-09
1.91239e-09
9.0618e-12
1.65648e-10
-1.11046e-13
-2.55454e-11
-1.34411e-11
-5.13903e-13
-4.9378e-11
-9.85554e-11
1.09078e-09
4.18446e-10
2.79146e-10
-1.32253e-09
-2.68306e-09
-1.13413e-09
-8.1999e-11
-3.32934e-12
-1.57684e-11
-1.64873e-11
1.65703e-11
2.66251e-10
2.0758e-10
7.77383e-11
1.10983e-09
6.47849e-10
1.32582e-11
-1.06258e-11
-4.71598e-11
-5.12188e-11
-3.12176e-11
-5.65718e-12
-3.91178e-10
-1.73086e-09
-2.59052e-09
-1.34291e-09
-5.51571e-11
1.51552e-11
4.85744e-10
1.17752e-09
2.28467e-09
2.94814e-09
6.50138e-10
5.85024e-11
3.19311e-12
-1.08933e-11
-1.27497e-12
-1.56817e-11
-1.6221e-11
-2.01976e-11
4.12458e-10
2.0094e-09
1.57211e-10
2.96962e-11
-2.68508e-09
-1.94641e-09
-3.76327e-10
-2.70934e-11
-3.35679e-12
-1.87826e-11
3.92249e-11
3.36234e-10
5.70632e-10
3.01501e-10
1.8089e-10
1.75695e-12
2.73294e-11
-1.23637e-11
-1.24207e-11
-2.72345e-11
-2.79198e-11
-8.58317e-12
-4.85515e-10
-2.22313e-09
-3.38781e-09
-1.8631e-09
-1.68612e-10
7.67134e-12
1.52147e-10
5.2787e-10
1.26618e-09
2.39804e-09
1.66047e-09
4.04628e-12
2.43139e-11
-8.54985e-11
-3.3858e-11
-8.07396e-12
-3.69239e-11
-7.21521e-13
1.05411e-10
1.54519e-09
1.59491e-09
4.93151e-11
-1.02937e-09
-3.46359e-09
-1.57684e-09
-1.85855e-10
-1.30526e-11
-5.00271e-11
2.59502e-11
1.71657e-10
4.9642e-10
2.26264e-10
7.08578e-11
3.12921e-10
1.53606e-11
-1.35445e-13
-4.15267e-13
-2.71473e-11
-3.58871e-11
-7.76615e-12
-4.80113e-10
-2.41962e-09
-4.31569e-09
-2.61156e-09
-3.15732e-10
1.8577e-11
5.25947e-11
2.49323e-10
4.61274e-10
1.20172e-09
1.4974e-09
4.35347e-11
2.38773e-11
-6.2344e-11
-1.99641e-11
-4.81064e-12
-1.67287e-11
5.24714e-12
7.75511e-11
1.16436e-09
2.22207e-09
1.10874e-10
1.49735e-10
-3.63786e-09
-2.42191e-09
-1.85947e-10
-9.72999e-11
-1.32251e-10
2.41252e-12
1.56295e-13
7.11562e-11
3.34406e-11
1.31156e-10
1.02348e-10
4.91925e-13
-5.52966e-13
-6.95356e-12
-6.76656e-11
-6.63686e-11
-1.28657e-12
-1.77236e-10
-1.43981e-09
-4.37744e-09
-4.10301e-09
-8.96691e-10
9.30308e-12
2.14762e-11
1.81985e-10
3.77111e-10
7.16093e-10
6.07708e-10
5.24363e-11
1.70034e-12
-5.00195e-12
-6.71299e-13
-1.21667e-12
4.66935e-13
1.45929e-11
1.80017e-11
9.00871e-10
2.41612e-09
4.51273e-10
5.23738e-10
-1.86132e-09
-1.76907e-09
-4.51821e-11
-3.08864e-10
-2.70828e-10
-9.21971e-13
1.56158e-10
1.53412e-10
2.18907e-11
3.10955e-11
1.90251e-11
4.20854e-12
3.56261e-13
-1.81558e-11
-4.92179e-11
-6.29498e-11
-2.94442e-11
-3.50431e-13
-1.15595e-10
-2.06473e-09
-4.98343e-09
-2.45527e-09
-1.56379e-10
2.25842e-12
1.36257e-10
4.58369e-10
5.31934e-10
2.38922e-10
2.84892e-11
3.6777e-12
3.14324e-13
3.3333e-14
2.83244e-14
-3.37782e-13
-3.98924e-14
6.91057e-13
3.73657e-10
1.92876e-09
6.94483e-10
3.40628e-10
-2.79795e-10
-6.47791e-10
-1.29885e-11
-4.91878e-10
-2.97515e-10
-1.05856e-11
2.76182e-10
8.82951e-10
4.02299e-10
1.39361e-10
6.07964e-11
1.49714e-12
-2.7913e-11
-1.08269e-10
-1.37631e-11
-6.76053e-11
-1.46675e-10
7.12218e-11
8.31647e-12
-1.49187e-10
-3.41434e-09
-4.32615e-09
-9.2476e-10
-5.92951e-12
5.74342e-11
3.35843e-10
3.27045e-10
1.78433e-10
4.64003e-11
1.35977e-11
6.24842e-12
1.19287e-11
9.40864e-12
-1.87397e-12
-2.46444e-12
1.15061e-13
1.1644e-10
9.85297e-10
6.15398e-10
5.67031e-11
6.42634e-11
-1.87275e-10
-1.03776e-11
-2.26583e-10
-9.95289e-11
-2.02628e-11
1.03187e-10
9.23485e-10
8.25269e-10
1.69678e-10
3.56843e-12
-1.76958e-10
-6.80182e-10
-3.4877e-10
-8.18906e-12
-1.9074e-11
7.38338e-11
1.68076e-10
1.68929e-10
1.4301e-11
-1.18965e-09
-4.80045e-09
-2.58163e-09
-1.78071e-10
6.21097e-12
1.90288e-10
1.31655e-10
4.84599e-11
1.50226e-12
5.06114e-13
9.08982e-12
8.1578e-11
1.01243e-10
-1.38893e-12
-1.33965e-11
2.59641e-13
9.49532e-11
6.09123e-10
5.56868e-10
5.9054e-12
-4.20277e-12
-3.70081e-10
-1.23156e-10
-1.75082e-11
-4.38176e-11
-9.56587e-13
6.63073e-11
3.93076e-10
3.41457e-10
1.36066e-11
-9.64623e-11
-8.23955e-10
-8.14826e-10
-1.21948e-10
6.45408e-12
8.57984e-11
3.86362e-10
3.03249e-10
-9.53459e-11
-1.13515e-13
-1.59936e-10
-2.99899e-09
-4.12832e-09
-9.83839e-10
-4.67266e-12
3.99936e-11
5.04195e-12
1.02228e-12
5.7858e-12
9.92234e-12
1.5072e-12
7.11911e-11
1.303e-10
8.59133e-12
-4.187e-11
9.2435e-13
7.68257e-11
4.47548e-10
3.38204e-10
6.02229e-12
-1.13665e-10
-9.11758e-10
-3.41842e-10
-1.7652e-11
-9.61825e-11
4.18269e-12
3.76799e-11
8.39783e-11
-2.03805e-10
-1.04956e-10
-9.02514e-11
-5.43097e-10
-2.47239e-10
1.24174e-10
2.56169e-11
7.91282e-12
7.43423e-11
2.87806e-10
3.82235e-10
1.51575e-10
2.07209e-12
-5.46594e-10
-2.89749e-09
-1.9582e-09
-2.09274e-10
-2.67537e-12
-3.98184e-11
-3.5058e-11
4.67895e-11
8.44942e-11
5.8666e-12
2.75014e-11
3.7395e-12
-1.40986e-10
-1.03195e-10
1.77848e-11
1.98284e-11
2.14953e-10
6.41541e-11
6.62027e-11
-1.40948e-10
-4.5483e-10
-6.02131e-11
-5.4211e-11
-1.0574e-10
-4.55807e-11
-2.88429e-12
-8.78306e-11
-2.79903e-10
-7.79276e-11
-1.85473e-11
-2.5123e-12
1.70942e-11
6.1896e-13
1.99265e-13
-2.3667e-14
-1.04844e-12
1.56319e-10
1.2988e-09
1.76665e-09
3.29633e-10
4.94996e-11
-5.24607e-10
-1.26003e-09
-5.757e-10
-1.05356e-10
-4.25809e-10
-3.44376e-10
-7.92223e-11
5.36971e-11
3.30473e-12
9.19554e-12
-9.23445e-13
-1.44721e-11
6.74301e-11
1.09216e-10
2.35014e-12
1.25162e-10
5.9923e-11
6.60545e-12
1.89827e-11
-1.3704e-11
-3.26201e-12
-1.80845e-11
-8.27982e-11
-8.48419e-11
-3.57044e-11
-8.97127e-13
-2.26491e-11
-2.00964e-11
3.04703e-13
3.31813e-14
6.50963e-12
2.52814e-12
-2.51714e-11
-5.15531e-12
-2.06643e-10
5.12135e-11
1.98562e-09
3.61869e-09
1.64803e-09
3.36916e-11
-9.7135e-11
-7.69715e-10
-8.36152e-10
-5.3837e-10
-3.22678e-10
-1.89832e-10
-1.13526e-10
-2.95069e-11
-5.98719e-13
-8.38747e-12
6.91691e-12
4.91431e-11
1.41698e-10
1.8022e-10
2.16838e-11
1.21205e-10
3.43352e-10
2.23025e-10
4.24721e-11
2.97586e-13
-7.87383e-12
-2.03119e-11
-5.86771e-13
-1.43595e-11
-1.02197e-11
8.48232e-13
9.74792e-13
7.40468e-12
2.60044e-12
5.13582e-12
6.40148e-12
-3.45879e-11
-1.72487e-11
-2.54757e-11
-2.5096e-10
-3.20614e-10
6.80439e-10
2.62449e-09
2.26941e-09
2.68699e-10
-1.89946e-11
-6.33125e-10
-1.03658e-09
-6.63586e-10
1.14458e-10
9.10783e-11
6.9183e-12
-1.34411e-13
-9.67487e-12
-5.52077e-12
-3.04082e-14
-1.55019e-16
6.73778e-12
4.18963e-11
1.48774e-11
2.42596e-11
1.13814e-10
2.2657e-10
2.10579e-10
4.88649e-12
1.51393e-10
1.66767e-10
4.01344e-11
5.71499e-12
1.0633e-12
4.83254e-12
1.67131e-13
8.07996e-12
4.63334e-12
-8.85064e-12
-6.09736e-12
-1.95037e-12
-2.39685e-11
-1.30526e-11
-2.92752e-12
-1.39557e-11
5.4932e-11
3.42894e-10
7.10152e-10
3.266e-10
4.32261e-12
-5.84279e-11
-2.54295e-10
-1.27579e-10
9.79173e-12
6.30173e-12
2.82328e-14
1.83346e-13
-2.43243e-13
-2.02833e-11
-2.70352e-11
1.05493e-11
1.18214e-12
2.41072e-12
3.85481e-12
3.00836e-11
-2.82053e-11
3.40794e-11
8.62924e-11
2.18125e-11
3.46943e-10
3.45703e-10
9.85018e-11
1.93184e-11
1.80067e-12
2.48965e-13
-8.0402e-12
-1.04953e-10
-2.85011e-10
-2.19991e-10
-1.04366e-11
-1.30872e-10
-3.45439e-10
-2.14806e-10
-1.62935e-11
4.12491e-12
4.17876e-11
3.09924e-11
4.90703e-12
-7.36321e-12
-6.28526e-13
-2.0032e-11
-5.71519e-11
-2.86616e-11
-1.54545e-13
-1.04808e-12
8.19419e-13
8.83491e-14
1.23786e-11
7.72661e-11
1.51147e-10
9.18137e-11
1.80761e-12
8.84048e-11
4.50788e-11
3.21066e-11
1.4877e-10
6.08943e-11
9.88541e-13
-5.23457e-14
-1.26386e-11
-8.99245e-11
-1.54872e-10
-1.10737e-10
-4.59199e-11
-2.38349e-11
-2.59813e-11
-1.99141e-11
1.22126e-11
1.0365e-11
1.45904e-13
-5.65978e-11
-2.33984e-10
-1.74259e-10
1.02216e-11
1.05087e-11
2.10341e-10
1.44392e-10
-4.7942e-11
-1.54091e-11
-1.43022e-11
-6.88712e-11
-5.99761e-11
-1.30678e-11
-2.67136e-11
-2.74423e-11
-7.83411e-11
-3.28182e-12
1.37309e-12
1.49217e-10
4.2743e-10
2.61749e-10
1.68926e-11
3.67083e-11
8.79905e-11
3.46216e-11
1.93359e-12
4.00842e-11
7.13502e-11
7.6758e-11
5.00503e-11
1.58366e-11
9.50658e-13
-4.6581e-13
-1.92749e-11
-9.91912e-11
-2.20819e-10
-2.29068e-10
-8.82067e-11
-5.19346e-12
-7.02373e-14
-1.74611e-11
-3.73648e-11
1.26765e-10
2.42108e-10
3.61051e-11
1.13259e-10
2.64869e-10
-1.06118e-10
-2.35308e-10
-3.10687e-11
-5.89764e-11
-2.2778e-10
-1.89493e-10
-1.77541e-12
-1.01802e-13
-2.21664e-12
-6.29377e-12
-1.86877e-12
-1.16701e-12
-7.43031e-12
-1.05393e-11
-9.50025e-12
-8.49035e-12
-1.4425e-11
-3.20689e-11
-6.3608e-11
-1.12766e-10
-1.96717e-10
-3.35685e-10
-4.9555e-10
-5.07035e-10
-2.30998e-10
-4.7105e-12
-7.73201e-11
-4.01484e-11
-5.00308e-12
-1.35801e-11
-5.69429e-11
-6.32508e-11
-5.07176e-11
-3.83859e-11
-2.37307e-11
-1.28333e-11
-8.59344e-12
-1.20673e-11
-3.07828e-11
-4.68037e-11
2.98907e-11
7.4306e-11
7.66163e-12
4.40263e-13
-7.56974e-14
-1.32747e-12
-4.53247e-12
-1.20484e-11
-1.85932e-11
-1.46187e-12
-3.22357e-11
-8.60679e-11
-6.35054e-11
-1.73289e-11
-1.23351e-12
-1.56994e-12
-4.11288e-11
-2.16258e-10
-5.21108e-10
-8.6747e-10
-1.28131e-09
-1.85192e-09
-2.42886e-09
-2.3055e-09
-9.54138e-10
-3.72976e-11
-1.1632e-09
-5.03512e-10
-9.82358e-12
-3.76209e-10
-1.4744e-09
-1.56612e-09
-9.14248e-10
-4.01199e-10
-1.66869e-10
-7.9484e-11
-4.69985e-11
-2.90269e-11
-2.52193e-11
-7.35768e-11
-1.17987e-10
5.74943e-11
3.62982e-12
8.61778e-11
6.31803e-12
-3.84215e-12
-1.37075e-11
-2.4308e-11
-2.25939e-11
-1.33723e-12
-8.87141e-11
-1.48183e-10
-5.9749e-11
-9.03295e-13
-2.65625e-11
-4.31693e-11
-3.38449e-12
-4.05759e-11
-1.85602e-10
-3.1283e-10
-4.0619e-10
-5.62349e-10
-8.0345e-10
-8.99552e-10
-4.40324e-10
-1.96047e-11
-8.75729e-10
-5.6392e-10
8.03779e-11
-8.55494e-11
-1.85998e-09
-2.29295e-09
-9.64426e-10
-1.79318e-10
-6.32205e-12
-1.70938e-11
-3.78299e-11
-3.57644e-11
-3.06855e-11
-1.26397e-11
-1.52939e-12
8.59965e-13
5.50474e-13
1.70941e-10
1.29917e-10
-3.75547e-12
-2.96069e-12
-1.34582e-11
-1.18639e-11
-1.40415e-12
-8.60963e-11
-1.34478e-10
-3.75292e-11
-3.13479e-12
-5.00872e-11
-6.97514e-11
-2.2941e-11
-1.42536e-12
-3.93808e-11
-6.83595e-11
-7.24318e-11
-1.03567e-10
-1.71147e-10
-2.45669e-10
-2.08255e-10
-4.14581e-12
-2.72467e-10
6.91509e-10
1.20677e-09
1.1419e-10
-8.42991e-10
-1.94705e-09
-5.19125e-10
-1.14063e-11
-3.71573e-11
-1.50551e-10
-2.43812e-10
-2.22384e-10
-1.47003e-10
-6.34877e-11
6.31617e-12
2.88178e-12
8.98338e-12
2.5138e-10
4.33352e-10
7.6061e-11
3.94189e-11
1.5859e-12
-1.05603e-12
-4.51924e-13
-7.71918e-11
-1.44706e-10
-3.93714e-11
-9.11828e-12
-8.15155e-11
-9.88694e-11
-4.05342e-11
-2.21137e-12
-7.96455e-12
-2.13135e-11
-2.85431e-11
-5.16332e-11
-6.64707e-11
-7.42772e-11
-1.94437e-10
-1.14102e-10
-3.94687e-11
9.63736e-10
3.4144e-09
2.67944e-11
2.85677e-10
-2.40593e-09
-6.58073e-10
-5.03104e-12
2.13313e-12
-6.74612e-11
-2.37201e-10
-2.68153e-10
-1.69229e-10
-4.94131e-11
8.51413e-11
9.10163e-11
5.81407e-11
3.28057e-10
8.172e-10
3.51334e-10
2.05126e-10
4.10186e-11
-5.25113e-12
-6.08209e-13
-8.06444e-11
-1.99314e-10
-7.33784e-11
-1.00537e-11
-1.73102e-10
-2.5835e-10
-1.40407e-10
-3.66382e-11
-3.59148e-12
-2.05387e-13
-4.64061e-12
-2.28722e-11
-4.00148e-12
6.75442e-11
-1.28732e-10
-3.28846e-10
-2.22613e-11
2.2033e-10
3.83742e-09
4.87706e-10
1.05068e-09
-3.1828e-09
-1.40874e-09
-3.51933e-11
-1.48599e-11
-7.68565e-11
-2.47314e-10
-2.79077e-10
-1.57036e-10
-6.25316e-11
3.36633e-11
1.61547e-10
1.74549e-10
3.70067e-10
9.90756e-10
8.06077e-10
5.68444e-10
2.20974e-10
-1.26487e-11
-7.66446e-12
-8.01852e-11
-2.69509e-10
-1.47616e-10
-1.42915e-12
-1.78789e-10
-4.73818e-10
-3.90099e-10
-1.62307e-10
-4.91158e-11
-1.12761e-11
-3.77682e-13
-3.31879e-12
5.13234e-11
1.71428e-10
-9.80459e-11
-4.09049e-10
-1.30399e-10
4.07072e-11
2.64532e-09
9.41415e-10
1.26895e-09
-2.49882e-09
-1.62534e-09
-8.64003e-11
-2.63588e-11
-1.37447e-10
-2.41371e-10
-1.65867e-10
-2.97756e-11
-1.35206e-12
-3.92899e-12
6.9203e-11
2.5213e-10
4.82861e-10
1.04861e-09
1.16723e-09
8.87702e-10
6.77044e-10
7.07228e-11
-3.89604e-11
-5.72559e-11
-3.27958e-10
-2.70409e-10
-4.64044e-11
-2.65739e-11
-3.16991e-10
-6.08577e-10
-5.17192e-10
-2.46578e-10
-7.17708e-11
-9.33236e-12
1.40348e-13
6.24411e-11
1.97982e-10
-1.51922e-10
-3.71465e-10
-1.27039e-10
2.58503e-12
1.21386e-09
5.78463e-10
9.65708e-10
-1.06639e-09
-8.6866e-10
-5.48425e-11
-2.40977e-11
-1.2744e-10
-1.4088e-10
-1.07235e-11
-1.61551e-10
-4.86733e-10
-1.85155e-10
2.20157e-13
1.23692e-10
5.42514e-10
1.15063e-09
1.38332e-09
1.00017e-09
1.19082e-09
4.55785e-10
-7.84158e-11
-3.16787e-11
-3.71733e-10
-4.10157e-10
-1.78146e-10
-2.45233e-11
-2.18051e-11
-3.67401e-10
-9.97373e-10
-1.00481e-09
-4.37819e-10