/*--------------------------------*- C++ -*----------------------------------*\
| =========                 |                                                 |
| \\      /  F ield         | OpenFOAM: The Open Source CFD Toolbox           |
|  \\    /   O peration     | Version:  5.0                                   |
|   \\  /    A nd           | Web:      www.OpenFOAM.org                      |
|    \\/     M anipulation  |                                                 |
\*---------------------------------------------------------------------------*/
FoamFile
{
    version     2.0;
    format      ascii;
    class       volScalarField;
    location    "50.4676134421789371";
    object      WWV;
}
// * * * * * * * * * * * * * * * * * * * * * * * * * * * * * * * * * * * * * //

dimensions      [0 3 -3 0 0 0 0];

internalField   nonuniform List<scalar> 
60000
(
-2.99383e-12
-3.06488e-12
-1.20188e-12
-2.08429e-14
3.27578e-14
8.22055e-14
2.30356e-13
8.76462e-14
-7.78894e-17
5.63816e-14
-4.34491e-13
-7.52859e-13
-2.5798e-13
-4.84415e-14
-1.51627e-14
-6.47683e-13
-4.27711e-13
2.91512e-12
9.12914e-12
9.70543e-12
4.09498e-12
5.73366e-14
-4.29278e-13
-1.077e-12
3.04287e-12
4.46354e-12
3.17986e-12
1.29865e-12
-6.95379e-13
-3.19007e-13
-4.11819e-13
-3.9329e-12
-8.17033e-12
-9.27685e-12
-5.74628e-12
4.13348e-13
-2.49375e-13
-3.45594e-13
-1.57647e-12
-2.37672e-12
-6.80564e-11
-2.66683e-11
-1.49405e-12
3.3716e-13
1.10308e-11
9.10464e-12
-1.32331e-12
-3.36539e-13
1.66052e-13
-1.78362e-11
-6.11525e-11
-4.486e-11
-4.74592e-12
3.07815e-14
4.26063e-12
1.75879e-11
5.62537e-11
8.53411e-11
4.8455e-11
-3.31648e-11
-9.71209e-12
-2.39087e-11
-3.8165e-11
1.39114e-10
1.87792e-10
8.47666e-11
2.38695e-11
8.44745e-12
-3.25881e-12
-1.68632e-12
-1.26632e-12
-3.59438e-12
-4.06999e-11
-8.9271e-11
-1.07373e-10
-2.56284e-11
3.56287e-12
3.24539e-12
-3.15999e-11
-7.87579e-11
-1.29839e-10
-6.13994e-11
-1.94928e-12
9.00766e-13
1.55406e-11
3.17832e-11
7.0183e-12
-2.67574e-12
2.12445e-12
-2.22426e-11
-1.32721e-10
-1.41775e-10
-2.95165e-11
-5.1857e-16
1.2477e-11
7.55923e-11
1.80603e-10
2.13136e-10
8.59752e-11
-1.06178e-10
-4.99365e-12
-3.25099e-10
-3.09193e-10
7.24022e-10
6.30797e-10
1.2469e-10
4.67366e-13
1.53715e-12
-1.31663e-13
-6.49168e-14
-2.09387e-12
5.39735e-12
6.70226e-12
-4.46792e-11
-1.02094e-10
-6.21355e-11
4.97035e-12
2.49988e-12
2.58694e-11
-5.99732e-11
-2.27001e-10
-1.634e-10
-8.4456e-12
1.38223e-12
1.80428e-11
3.96649e-11
3.27844e-11
-9.92667e-12
1.38498e-13
4.33154e-12
-1.85731e-10
-2.86986e-10
-7.72429e-11
-1.87552e-14
2.71658e-11
1.55134e-10
3.09945e-10
3.10371e-10
1.11659e-10
-2.00866e-10
-5.65253e-12
-8.88588e-10
-7.71881e-10
1.92776e-09
1.25098e-09
1.01692e-10
3.07835e-11
1.89919e-11
-3.76365e-11
-2.62201e-11
-1.41951e-11
-2.99836e-12
1.27995e-11
-2.25279e-11
-1.1408e-10
-1.07736e-10
-5.23752e-12
4.47673e-13
3.60847e-11
-1.09808e-12
-2.76814e-10
-5.3542e-10
-8.82003e-11
3.63875e-14
1.7829e-11
3.54831e-11
5.14444e-11
-6.23251e-12
3.82296e-14
2.66931e-11
-2.15521e-10
-7.39594e-10
-3.34975e-10
-5.42379e-12
3.69184e-11
3.31015e-10
5.92465e-10
4.57824e-10
1.46644e-10
-3.92168e-10
-9.81998e-11
-1.3109e-09
-1.74437e-09
4.09528e-09
2.6557e-09
1.87831e-10
6.78715e-11
2.55805e-11
-1.20068e-10
-1.02647e-10
-4.44388e-11
-1.4481e-11
3.24555e-12
-2.89371e-12
-1.11503e-10
-2.33667e-10
-5.68269e-11
2.16483e-11
4.22988e-12
5.19588e-11
-3.95011e-11
-7.27907e-10
-4.23314e-10
-5.9506e-12
6.04129e-12
2.25256e-11
4.02532e-11
2.47411e-11
5.50503e-12
5.14738e-12
-7.80759e-11
-1.26853e-09
-1.1488e-09
-1.0654e-10
1.59525e-11
6.49453e-10
1.20668e-09
6.21534e-10
1.27606e-10
-3.65976e-10
-3.91617e-10
-1.17233e-09
-3.10823e-09
6.43268e-09
4.73359e-09
3.52772e-10
7.23519e-11
4.85542e-11
-9.68377e-11
-1.12716e-10
-6.23077e-11
-2.15728e-11
-5.07995e-12
-2.7453e-12
-3.92798e-11
-2.0416e-10
-1.65316e-10
6.43134e-11
3.66428e-11
7.07858e-12
7.90356e-12
-2.70645e-10
-6.41285e-10
-8.07239e-11
8.208e-13
5.97063e-12
1.57293e-11
3.46205e-11
3.56282e-11
3.20638e-12
-4.55551e-12
-1.28908e-09
-2.16949e-09
-4.19497e-10
-1.41222e-11
1.19682e-09
2.49685e-09
8.54804e-10
4.67746e-11
-1.21944e-10
-4.66432e-10
-6.246e-10
-3.92111e-09
7.42597e-09
5.82832e-09
4.28582e-10
4.09576e-11
4.3194e-11
-5.42511e-11
-7.56888e-11
-3.98223e-11
-1.12166e-11
-2.47074e-12
-2.38113e-12
-1.62332e-11
-9.29296e-11
-1.49486e-10
4.54542e-11
1.5383e-10
5.88451e-11
4.77147e-11
-1.02382e-11
-3.03651e-10
-1.11341e-10
8.35778e-12
2.96184e-14
9.79881e-13
6.94691e-12
4.04157e-11
1.56244e-11
-1.46045e-12
-8.6373e-10
-2.32047e-09
-4.88783e-10
-7.6379e-11
2.0608e-09
3.7411e-09
1.03184e-09
8.27687e-12
-1.1387e-12
-1.18969e-10
-2.90649e-10
-3.72036e-09
6.35502e-09
5.23289e-09
4.79681e-10
1.11852e-12
1.78054e-11
-3.0535e-11
-5.15965e-11
-1.72609e-11
-5.39189e-15
-6.69714e-12
-5.8921e-12
-1.46275e-12
-4.53603e-11
-8.60952e-11
1.26913e-11
1.80242e-10
2.56171e-10
2.94199e-10
2.36963e-12
-5.62335e-11
-3.4456e-11
2.44869e-11
1.41272e-12
4.25641e-14
-2.50472e-12
3.25634e-12
1.99373e-12
-4.18524e-12
-4.87857e-10
-1.27139e-09
-7.11281e-11
-1.87565e-10
2.5467e-09
3.43687e-09
8.61403e-10
1.19801e-12
-1.02988e-10
-3.28003e-11
-2.57164e-10
-2.40374e-09
4.1359e-09
3.66914e-09
6.39413e-10
4.92566e-11
1.33627e-12
-2.06218e-11
-3.46375e-11
-3.50029e-12
-7.2803e-12
-4.54393e-11
-7.21773e-11
-1.61985e-11
-1.85512e-11
-7.97995e-11
-2.25012e-11
1.07776e-10
3.26086e-10
4.40537e-10
8.43619e-11
8.32822e-12
7.41738e-11
9.4019e-11
4.61395e-12
2.13215e-12
-4.80656e-12
-6.13056e-12
-1.49288e-11
-7.15233e-12
-3.95418e-10
-4.1775e-10
-1.06948e-10
-1.1683e-10
2.35408e-09
2.12922e-09
4.86604e-10
1.16592e-12
-1.18241e-10
-2.70904e-10
-3.07639e-10
-9.51335e-10
1.79423e-09
2.23441e-09
1.08808e-09
2.42466e-10
9.63727e-13
-1.76913e-11
-2.34698e-11
-9.61165e-14
-1.5698e-11
-6.86977e-11
-1.6776e-10
-8.79915e-11
-1.43425e-12
-9.02515e-11
-8.71291e-11
-1.84529e-12
1.86634e-10
1.87131e-10
1.67591e-10
6.65863e-12
2.8638e-10
3.6947e-10
4.46213e-11
8.16864e-12
-1.51396e-11
-1.25727e-12
-1.85496e-11
-8.13476e-12
-4.74969e-10
-3.231e-10
-2.17308e-10
2.19807e-10
2.18164e-09
1.43749e-09
2.2865e-10
7.42084e-13
-2.41861e-11
-1.33193e-10
-1.399e-10
-1.57294e-10
3.51175e-10
1.32132e-09
1.57841e-09
4.16878e-10
1.22772e-12
-1.84153e-11
-1.75293e-11
-1.52249e-12
1.70366e-11
-2.60755e-11
-2.63647e-10
-2.05027e-10
-4.9378e-12
-7.90471e-11
-1.43308e-10
-1.12609e-10
-6.64541e-11
-3.71911e-10
3.49502e-11
1.5387e-13
4.83082e-10
6.8148e-10
1.37924e-10
2.31663e-12
-1.28982e-11
-4.12338e-12
-2.94772e-11
-1.43969e-12
-5.59764e-10
-5.68259e-10
-4.73418e-11
3.83142e-10
2.14911e-09
1.01327e-09
1.742e-11
4.40569e-12
-1.06736e-11
-1.06386e-10
-6.78711e-11
-1.18368e-11
1.74346e-11
8.74017e-10
1.68671e-09
4.04989e-10
-1.22796e-12
-2.4336e-11
-1.55438e-11
1.32973e-12
1.33567e-10
1.70204e-10
-3.74777e-10
-4.6506e-10
-5.23988e-11
-4.28864e-11
-1.29456e-10
-1.54496e-10
-2.94343e-10
-8.09419e-10
-3.11591e-10
8.73921e-12
2.96377e-10
5.03514e-10
1.56887e-10
2.90022e-12
3.77999e-12
-2.05333e-11
-6.34626e-11
-4.29931e-12
-6.17629e-10
-1.13517e-09
-7.91783e-12
2.14383e-10
1.64736e-09
3.27941e-10
2.04912e-10
9.6118e-11
-1.67036e-11
-1.454e-09
-1.60157e-09
-3.00033e-10
4.87985e-13
7.84642e-10
1.37793e-09
2.41836e-10
-2.58094e-13
-3.70501e-11
-6.37703e-12
4.04385e-13
1.9296e-10
5.38057e-10
-4.0524e-10
-1.05991e-09
-2.69087e-10
-8.22389e-12
-7.79754e-11
-8.75003e-11
-3.1257e-10
-7.43088e-10
-5.62804e-10
1.93697e-11
9.72663e-12
9.94752e-11
9.74187e-11
4.79331e-11
1.34689e-12
1.31991e-11
-1.38976e-11
-1.09479e-10
-2.10829e-10
-1.60121e-09
-2.28853e-10
1.86395e-11
6.88786e-10
6.99366e-12
1.19101e-09
3.9309e-10
1.51721e-10
-2.48098e-09
-4.57611e-09
-8.81307e-10
2.8714e-13
5.4033e-10
7.22061e-10
1.03778e-10
-4.93569e-14
-2.41029e-11
3.42055e-11
5.33157e-11
3.46659e-11
5.27315e-10
-2.4232e-10
-2.04916e-09
-1.04944e-09
-2.77537e-11
-3.14923e-11
-1.10214e-11
-1.96965e-10
-4.40252e-10
-4.44636e-10
-3.18974e-11
4.20016e-11
6.52368e-13
2.90522e-11
8.23338e-11
5.91405e-11
2.69567e-12
5.51329e-11
-9.60748e-11
-2.34379e-11
-7.22896e-10
-4.99781e-10
-2.68514e-12
1.59603e-11
4.22052e-10
1.56797e-09
4.55958e-10
9.03657e-11
-2.2839e-09
-6.36254e-09
-2.01128e-09
-5.31084e-12
2.05626e-10
4.73959e-10
1.48561e-10
1.81372e-12
1.01893e-11
1.00696e-10
2.5577e-10
1.03082e-10
8.81955e-11
-1.28948e-10
-3.0852e-09
-2.98286e-09
-4.21507e-10
-8.28431e-13
7.28244e-11
-6.37467e-11
-2.61104e-10
-2.16211e-10
-3.61885e-11
1.19528e-11
1.20766e-11
3.6474e-12
4.30877e-12
1.84354e-11
1.27035e-11
4.82169e-12
1.63099e-11
-1.93677e-10
-4.38842e-11
-4.86842e-10
-1.02131e-10
8.77469e-11
3.10916e-10
3.76548e-10
1.17657e-10
3.95175e-12
-1.44179e-09
-5.25644e-09
-2.67847e-09
-5.26814e-11
1.43587e-10
7.0329e-10
3.8613e-10
2.28894e-11
2.05488e-11
1.39831e-10
3.69395e-10
3.5121e-10
1.97114e-11
-1.06215e-10
-3.02005e-09
-5.64567e-09
-1.97845e-09
-2.17346e-11
7.11802e-11
1.09756e-10
-9.92307e-11
-9.64862e-11
-1.20799e-12
1.51793e-12
1.73691e-12
4.65247e-11
3.01027e-11
-2.42125e-13
-3.1135e-12
-1.05559e-14
-1.11925e-12
-1.36543e-10
-2.93721e-12
-3.45026e-10
-1.50925e-10
5.92858e-11
2.58435e-14
5.53812e-12
3.48185e-11
-6.11354e-13
-7.39947e-10
-3.11887e-09
-1.86725e-09
-2.88611e-11
1.73715e-10
8.7682e-10
4.38573e-10
2.57457e-11
8.75295e-12
9.60206e-11
3.95868e-10
5.17574e-10
8.0167e-11
-1.13792e-11
-1.77998e-09
-6.2966e-09
-4.66297e-09
-4.94801e-10
9.8145e-13
1.66793e-10
1.08768e-11
-1.76778e-11
-9.52406e-18
5.17221e-12
4.0441e-15
4.24004e-11
4.18891e-11
-3.83022e-11
-3.88671e-12
-7.17326e-13
-5.67116e-12
-5.07304e-11
-7.98779e-12
-7.55037e-11
-4.69574e-12
1.16986e-11
5.83437e-11
3.0406e-11
9.12396e-11
-3.51679e-11
-2.24e-10
-1.5953e-09
-9.40696e-10
3.04742e-11
9.44202e-11
3.93971e-10
9.78767e-11
9.72133e-13
3.43438e-12
5.9326e-11
3.6009e-10
8.71743e-10
2.22673e-10
-1.79196e-10
-3.65391e-10
-3.4608e-09
-4.72393e-09
-1.49252e-09
-2.6714e-11
1.86354e-11
-9.81488e-14
-2.83337e-12
-5.14387e-12
1.8612e-11
6.36728e-12
8.16621e-11
3.08239e-10
-1.94801e-10
-3.60415e-10
-2.10222e-11
-8.10726e-12
-1.64725e-13
-1.06362e-11
-1.74669e-11
1.63548e-11
8.05396e-11
3.47301e-13
2.27307e-10
2.1137e-10
-1.11955e-10
-6.00053e-12
-2.17383e-10
-2.19418e-10
6.09737e-11
2.10617e-11
5.2505e-12
2.91594e-12
1.43559e-13
6.74927e-11
8.8844e-11
1.08422e-10
1.14636e-09
5.21462e-10
-9.77952e-10
-7.27597e-11
-8.63529e-10
-2.35868e-09
-1.60221e-09
-2.86597e-10
-6.8699e-12
-1.68932e-10
-3.09734e-10
-1.77827e-10
1.68874e-10
3.58225e-11
2.32973e-10
8.33313e-10
-1.33736e-10
-1.37135e-09
-3.01509e-10
-1.19608e-10
-2.3392e-10
-2.0333e-11
6.48673e-13
2.62038e-11
2.24754e-11
1.26248e-12
5.74812e-11
8.95378e-11
7.92989e-12
-6.15841e-11
-1.31493e-11
-5.48833e-12
3.24919e-12
1.23736e-11
8.26363e-13
4.69803e-11
1.91804e-10
2.91122e-10
2.22389e-11
5.71731e-10
2.10168e-09
6.25734e-10
-1.8294e-09
-7.97784e-10
-1.77299e-11
-5.34498e-10
-6.3912e-10
-3.32642e-10
-1.45042e-10
-1.36447e-10
-3.97571e-10
-3.68999e-10
5.06696e-11
2.36583e-11
9.95526e-11
3.63684e-10
6.39382e-12
-1.11467e-09
-8.28572e-10
-1.59948e-11
-6.78612e-10
-2.8904e-10
1.33221e-10
8.71653e-11
1.41942e-11
6.0535e-13
1.3087e-11
1.69802e-11
5.52485e-12
-4.33334e-15
-2.80969e-12
-4.50952e-12
-2.67304e-13
-1.47214e-14
3.25023e-12
3.34411e-11
1.01216e-10
1.14696e-10
9.54029e-12
1.96037e-10
7.57057e-10
-6.09029e-10
-3.09607e-09
-1.75365e-09
-6.75695e-11
-7.89464e-11
-7.11556e-11
6.32969e-11
3.41924e-11
8.34572e-11
-8.91416e-11
-6.85111e-11
1.00537e-11
1.90358e-11
1.03322e-12
1.22213e-11
-1.62586e-11
-3.39996e-10
-4.13097e-10
-5.6126e-12
-3.23587e-10
-6.86746e-11
5.67575e-10
3.04406e-10
3.78415e-11
5.62985e-12
1.34518e-10
2.18037e-10
9.06535e-11
-1.40536e-11
-3.59324e-11
-3.92173e-11
-2.99471e-11
1.16544e-11
2.45575e-11
4.06156e-13
2.69213e-11
7.37268e-11
6.18087e-11
2.00465e-12
7.57796e-11
-1.78128e-10
-1.648e-09
-2.01578e-09
-4.80576e-10
-6.01649e-14
2.18559e-10
6.97221e-10
5.1477e-10
9.54472e-12
3.20204e-13
-2.42949e-12
4.8829e-13
1.92107e-11
1.43386e-10
1.04522e-10
5.90791e-13
-3.9578e-11
-9.23244e-11
-7.26599e-12
-3.39908e-10
-3.18952e-10
-7.73126e-11
-9.49058e-11
-1.35231e-12
-8.36144e-11
-4.46395e-11
1.0481e-10
7.87081e-11
1.96942e-11
-1.43099e-11
-3.12639e-11
6.75985e-11
2.53187e-10
1.89464e-10
1.57389e-14
3.24985e-10
7.79963e-10
5.52461e-10
1.28384e-10
2.98489e-13
-5.26178e-11
-4.61925e-10
-4.8575e-10
-9.78729e-11
-3.51309e-12
1.91072e-11
1.2817e-10
9.15573e-11
-1.14695e-14
-5.95002e-12
-1.95961e-12
4.28921e-12
2.58014e-11
2.40048e-10
2.42501e-10
-1.42112e-11
-2.03039e-11
-2.92123e-10
-8.61619e-11
-8.99749e-11
-3.27962e-10
-3.45045e-10
-2.35974e-10
-4.05989e-12
-9.78849e-11
-1.0454e-10
1.93201e-11
8.19258e-11
1.24228e-10
1.96559e-10
2.82792e-10
3.11473e-10
2.05235e-10
2.9814e-11
6.28438e-11
4.41491e-10
7.17345e-10
4.0351e-10
1.04822e-12
-1.43259e-12
-2.38147e-10
-8.16211e-10
-5.83772e-10
-7.66746e-11
-3.2225e-14
1.69556e-11
2.31936e-11
3.94031e-12
-1.75726e-13
-4.46396e-11
-1.63232e-11
1.47054e-10
4.50642e-11
7.17423e-11
2.47473e-10
-6.72442e-11
-5.83e-11
-1.3956e-10
-5.35603e-10
-2.24677e-10
-1.49708e-12
-2.86992e-11
-1.17478e-10
-2.40976e-10
-1.85438e-10
-5.373e-11
-2.12319e-12
2.11581e-12
5.92826e-11
2.47183e-10
4.51106e-10
4.26354e-10
1.93508e-10
4.72294e-11
1.7579e-13
1.98937e-10
7.63359e-10
7.04223e-10
-2.04843e-10
-2.75276e-10
-4.26552e-11
-7.2293e-10
-5.65231e-10
4.50471e-11
2.63467e-11
4.96179e-11
1.18185e-10
1.264e-11
1.56818e-14
-1.87231e-13
-6.62862e-15
-1.04736e-13
-9.97132e-14
-4.26313e-14
9.86118e-14
1.46325e-14
3.15952e-13
7.84797e-13
6.45831e-13
4.19017e-13
4.24099e-13
1.88036e-13
-1.39007e-13
-1.95174e-13
-7.81082e-14
-1.37918e-14
-1.0383e-13
6.86808e-13
5.32901e-12
1.63935e-12
3.99873e-15
-3.54102e-12
-1.1546e-11
-1.51638e-11
-1.35303e-11
-1.10142e-11
-4.42435e-12
-3.28272e-13
-1.67464e-14
4.22848e-13
9.89673e-13
3.39359e-13
7.57467e-13
1.35775e-12
5.92701e-13
5.39925e-14
3.26453e-14
3.18758e-16
-8.73128e-12
-4.92401e-12
-3.86836e-13
1.42237e-16
3.26375e-14
5.369e-13
2.44548e-12
1.07051e-12
6.40923e-13
3.7221e-12
5.31338e-12
1.53488e-11
2.04272e-11
1.56421e-11
1.11625e-11
1.67405e-11
3.59171e-11
2.17977e-11
9.01025e-12
5.14792e-11
-7.32764e-11
-2.13468e-11
-7.13978e-13
-2.88331e-11
1.38302e-11
4.50722e-11
-5.08843e-12
-3.00675e-11
-7.89124e-12
2.46339e-12
2.67348e-12
2.58139e-11
3.41515e-11
6.23535e-12
-7.3762e-12
1.50815e-12
7.72442e-12
7.19315e-13
-3.87765e-13
-4.51937e-12
-4.81519e-11
-2.05279e-11
-1.51554e-12
3.50616e-13
2.69131e-12
1.38818e-12
2.18567e-12
5.24435e-12
-3.97071e-13
-7.20216e-12
-3.06667e-11
5.94399e-12
2.73491e-11
9.5512e-12
7.35644e-15
1.68011e-13
1.47704e-11
6.23818e-11
3.85278e-12
4.69472e-11
-4.09284e-10
-3.13531e-10
-1.0174e-11
-3.75144e-11
3.55527e-10
2.8316e-10
4.67632e-11
-1.86734e-12
-2.08931e-13
5.42636e-13
1.54066e-11
4.90408e-11
5.84413e-11
2.38379e-11
-1.94462e-11
-1.38399e-11
-8.84033e-13
1.02535e-12
-1.18438e-12
-2.50824e-11
-1.17356e-10
-5.30082e-11
-1.65759e-12
6.32777e-14
3.76535e-12
4.71394e-12
1.25404e-12
1.03693e-11
-1.56054e-11
-1.08586e-12
-6.00284e-11
-1.9197e-11
2.28765e-11
4.22307e-14
5.32774e-11
1.03287e-10
1.76768e-11
3.87194e-11
5.00111e-11
-1.25115e-12
-9.34035e-10
-1.23638e-09
-3.85103e-12
-1.1916e-10
1.11665e-09
6.00222e-10
3.66859e-11
-3.92247e-13
-9.76051e-12
1.31829e-11
6.82612e-11
1.10186e-10
8.86906e-11
1.3731e-11
-7.92212e-11
-6.36007e-11
-1.49742e-11
1.70325e-12
1.78008e-16
-2.84972e-11
-2.09208e-10
-1.5749e-10
-5.75605e-12
5.57909e-14
3.14128e-12
1.17249e-11
1.32459e-13
1.44225e-11
-6.86854e-11
-2.9877e-11
-4.9829e-11
-7.22766e-11
2.82826e-11
2.85849e-12
2.11795e-10
4.1796e-10
1.46765e-10
2.40207e-11
1.90302e-10
-3.30563e-12
-8.74191e-10
-3.13144e-09
-6.1637e-11
-3.70547e-10
2.8612e-09
1.5504e-09
8.22325e-11
-2.56289e-12
-4.2116e-11
1.95806e-12
9.21953e-11
1.3305e-10
9.06096e-11
-5.50858e-12
-1.77742e-10
-2.38488e-10
-8.52563e-11
-3.01363e-12
4.54517e-12
-5.9104e-12
-2.02819e-10
-4.05588e-10
-3.50345e-11
9.28856e-14
1.10989e-12
2.07826e-11
1.27136e-11
2.32351e-12
-7.03325e-11
-2.53678e-10
-2.53745e-12
-8.68873e-11
6.65675e-12
8.05731e-12
4.73335e-10
9.37934e-10
3.54231e-10
1.06997e-11
3.65013e-10
2.07868e-11
-1.79424e-10
-4.15296e-09
-5.19021e-10
-8.43136e-10
5.24296e-09
3.34879e-09
2.33262e-10
-1.92956e-13
-4.11173e-11
-2.44357e-11
4.62967e-11
7.37058e-11
3.87748e-11
-1.45442e-11
-1.56371e-10
-4.12755e-10
-2.86863e-10
-4.19407e-11
4.40418e-11
1.83476e-13
-4.08507e-11
-6.67248e-10
-1.36884e-10
1.58584e-15
2.80966e-13
1.5639e-11
3.60445e-11
9.7471e-12
-8.08742e-12
-3.64661e-10
-3.0761e-10
-1.55067e-14
-4.9938e-12
2.97745e-11
7.05618e-10
1.17391e-09
3.00773e-10
3.59203e-11
4.45552e-10
1.05163e-10
-1.56955e-11
-3.02661e-09
-9.74133e-10
-1.24207e-09
6.62987e-09
4.5018e-09
2.97466e-10
1.73406e-12
-1.82295e-11
-1.16684e-11
6.27227e-12
4.34308e-12
6.74276e-14
-1.0639e-12
-4.55362e-11
-3.34735e-10
-5.39584e-10
-2.07049e-10
1.06534e-10
4.69045e-11
5.69185e-14
-4.68327e-10
-3.20023e-10
-1.05642e-13
8.39256e-12
1.2582e-12
4.31589e-11
4.18337e-11
-2.7456e-11
-4.44617e-11
-6.73911e-10
-4.16586e-10
-4.78073e-11
1.21171e-10
8.07164e-10
7.60623e-10
6.4536e-11
1.5841e-10
4.48155e-10
1.34198e-10
-2.66405e-10
-1.08037e-09
-7.042e-10
-1.41343e-09
5.93876e-09
3.77793e-09
1.47779e-10
1.5876e-11
-5.75963e-12
-2.26163e-12
8.83636e-13
6.98892e-12
-1.28308e-11
-1.37074e-10
-5.44526e-11
-7.24165e-11
-5.1349e-10
-4.77275e-10
4.54019e-11
2.81865e-10
8.96099e-11
-7.73178e-11
-2.63418e-10
-2.36148e-13
3.74958e-11
9.35507e-12
2.08845e-11
2.07386e-11
-2.51251e-10
-1.99555e-10
-1.18392e-10
-1.11532e-09
-6.28166e-10
3.18492e-10
7.69232e-10
3.21277e-10
5.7648e-12
2.6244e-10
3.12483e-10
9.60185e-11
-6.45846e-10
-1.66764e-11
-1.12879e-10
-1.15651e-09
3.78175e-09
1.77068e-09
1.46435e-12
5.96016e-11
8.48505e-12
2.8204e-12
2.11108e-15
3.93902e-11
-4.72648e-12
-5.61573e-10
-6.91713e-10
-6.57064e-11
-2.11304e-10
-5.6982e-10
-2.30449e-10
4.9161e-10
2.81927e-10
-1.03265e-12
-7.05195e-11
2.22377e-13
2.28117e-11
1.2651e-11
4.91454e-13
-1.0229e-12
-3.43589e-10
-1.06585e-09
-3.51159e-10
-3.43498e-10
-1.07251e-09
6.72197e-10
1.05681e-09
2.04285e-10
1.1094e-11
1.20607e-10
1.37919e-10
4.6858e-11
-1.003e-09
-5.84919e-10
-8.32724e-11
-5.8325e-10
1.25081e-09
1.53129e-10
9.59589e-11
7.72825e-11
1.43756e-11
5.49221e-12
1.98302e-13
8.38202e-11
4.48942e-11
-8.54075e-10
-1.41736e-09
-5.23765e-10
-5.73839e-12
-3.6566e-10
-4.66677e-10
2.28947e-10
-7.38464e-11
-4.05109e-11
-3.28557e-12
2.23401e-11
1.25264e-11
1.84207e-12
8.26607e-12
6.22204e-14
-3.50168e-11
-1.09237e-09
-1.94337e-09
-1.84672e-10
-4.42638e-10
9.00491e-10
2.02544e-09
9.4114e-10
1.43018e-10
1.11845e-11
1.11643e-10
3.04709e-12
-9.93052e-10
-1.68061e-09
-5.42821e-10
-9.99857e-11
2.551e-12
1.69704e-10
8.38232e-11
1.75268e-11
8.55699e-12
9.02522e-12
9.09255e-13
1.50402e-10
1.16371e-10
-1.17952e-09
-1.89461e-09
-8.39644e-10
-3.14928e-11
-1.23836e-10
-3.84015e-10
-3.83355e-10
-1.24029e-09
-2.99084e-10
3.2763e-13
1.04532e-10
1.29978e-10
4.27621e-11
3.36072e-12
1.02303e-11
-6.22423e-12
-4.04197e-10
-2.74758e-09
-1.89709e-09
-1.00304e-11
6.52998e-10
4.06179e-09
3.55403e-09
8.07501e-10
3.24492e-11
2.55807e-10
-2.70606e-11
-4.42895e-10
-1.39805e-09
-5.03591e-10
-2.26988e-11
4.0359e-10
2.29666e-10
8.72824e-14
1.41766e-13
1.05262e-11
1.97535e-11
1.08706e-12
2.47489e-10
3.25708e-10
-1.61588e-09
-2.72665e-09
-1.12492e-09
-6.92942e-11
-3.09295e-11
-1.60363e-10
-6.62794e-10
-1.96406e-09
-8.41391e-10
1.85121e-11
1.0684e-10
1.55931e-10
3.39795e-11
3.11012e-12
2.00139e-11
-8.29022e-12
-1.06385e-10
-2.40582e-09
-4.01048e-09
-2.11205e-10
1.77584e-10
5.70316e-09
5.9091e-09
8.91913e-10
3.33756e-10
5.28422e-10
-1.78737e-11
-9.30679e-14
-1.54557e-10
-8.72408e-11
-7.1539e-11
2.41865e-10
1.28337e-11
6.56131e-12
8.32776e-12
2.93629e-11
4.37054e-11
2.28294e-12
1.88736e-10
5.80049e-10
-1.50183e-09
-4.11056e-09
-2.0522e-09
-1.63227e-10
-9.75405e-12
-4.09674e-11
-4.72495e-10
-1.49152e-09
-9.27038e-10
4.52296e-11
2.24517e-11
3.95648e-11
3.68978e-12
3.3706e-12
1.48797e-11
1.0505e-11
-4.33677e-12
-1.24341e-09
-4.76374e-09
-9.45204e-10
-2.12738e-10
5.09772e-09
5.48103e-09
2.84041e-10
1.01262e-09
7.29261e-10
-1.50402e-12
-4.27592e-10
-4.68279e-10
-5.90625e-11
-2.18037e-11
3.73188e-11
1.46692e-11
1.54244e-11
1.87392e-11
2.0658e-11
3.44601e-11
4.89708e-11
4.42016e-13
2.49437e-10
-5.60603e-10
-4.72451e-09
-4.02453e-09
-6.30814e-10
-7.24616e-14
-2.53038e-11
-2.65031e-10
-7.87051e-10
-4.93568e-10
1.78296e-10
5.99573e-11
3.27124e-12
7.97549e-15
2.02383e-14
-3.71727e-13
5.50921e-12
-1.63192e-14
-2.91725e-10
-3.0291e-09
-1.42771e-09
-2.07866e-10
2.69977e-09
2.65564e-09
1.77279e-13
1.13236e-09
5.67256e-10
1.91657e-13
-8.37229e-10
-1.90696e-09
-7.26803e-10
-9.2385e-11
5.14176e-11
8.76584e-12
5.6832e-11
1.13763e-10
1.44656e-11
3.52105e-11
1.85583e-10
2.81254e-10
2.17744e-11
-5.55638e-11
-3.51502e-09
-6.07411e-09
-1.92255e-09
-4.976e-11
-2.91818e-11
-1.99363e-10
-4.06492e-10
-1.38229e-10
1.9051e-10
8.6527e-11
2.36382e-11
2.43984e-11
7.2485e-12
-6.89288e-12
-2.14026e-12
-1.30598e-13
-7.37981e-11
-1.1914e-09
-1.07633e-09
-2.63133e-11
5.97825e-10
7.00322e-10
9.22477e-13
3.58054e-10
1.79018e-10
4.45893e-12
-6.23375e-10
-2.07281e-09
-1.27146e-09
-1.31353e-10
1.46691e-12
4.19981e-10
1.03876e-09
5.41757e-10
2.32331e-11
8.12451e-11
8.53462e-11
-2.3125e-10
-1.55098e-10
-5.89169e-12
-1.73515e-09
-6.1845e-09
-3.77328e-09
-3.54864e-10
-1.00009e-11
-1.77087e-10
-1.82899e-10
-2.82153e-11
4.58824e-12
2.5717e-12
2.1974e-11
1.83539e-10
1.21041e-10
-6.53056e-11
-3.46673e-11
-8.14389e-14
-7.18611e-11
-6.12413e-10
-7.6862e-10
-1.15316e-11
1.31389e-10
6.81517e-10
2.16237e-10
1.42698e-11
8.26817e-11
7.05612e-14
-2.82228e-10
-1.5168e-09
-1.12146e-09
-4.48617e-11
1.05717e-10
1.18189e-09
1.39868e-09
4.60943e-10
1.91972e-11
4.07605e-11
1.5717e-10
-2.74594e-10
-1.28855e-09
-3.09482e-10
-6.05477e-10
-4.21751e-09
-4.96397e-09
-1.21896e-09
-1.1261e-11
-9.99106e-11
-3.28568e-11
-6.29889e-13
1.19676e-11
3.79845e-11
3.78471e-13
1.15485e-10
1.6746e-10
-1.12847e-10
-2.04714e-10
-2.16057e-11
-8.60503e-11
-4.46354e-10
-3.80614e-10
-3.7931e-14
1.84184e-10
1.13676e-09
4.87302e-10
7.07368e-12
2.02884e-10
1.81494e-11
-5.91576e-11
-8.39649e-10
-7.22161e-10
3.30726e-11
6.1583e-11
7.54561e-10
6.39598e-10
1.12409e-10
1.15434e-11
4.59851e-12
9.72376e-11
2.08997e-10
-1.49549e-09
-2.34788e-09
-1.07092e-11
-1.58345e-09
-2.88142e-09
-1.65932e-09
-2.36683e-10
-2.35757e-12
-2.91402e-11
-7.42574e-12
1.38715e-10
1.82492e-10
2.06223e-11
8.10931e-11
2.93724e-10
-7.89171e-11
-6.79994e-10
-2.76443e-10
-2.0562e-11
-2.59843e-10
-7.17473e-11
-1.5444e-11
4.24616e-10
8.24975e-10
1.37596e-10
7.48091e-11
2.12062e-10
-2.97944e-12
-1.05311e-11
-7.72052e-11
-3.00842e-11
6.41085e-11
1.70982e-11
8.16155e-11
1.11296e-11
3.79003e-14
5.31128e-13
5.51713e-13
1.79806e-11
1.31483e-10
-1.18475e-09
-4.19672e-09
-1.49098e-09
-1.84068e-10
-9.58209e-10
-5.88672e-10
-2.77564e-10
-7.1064e-11
-2.76781e-10
-4.51131e-10
-1.44398e-10
2.57221e-10
4.20095e-11
1.67504e-10
5.9579e-10
1.87603e-10
-1.13691e-09
-9.73666e-10
-7.76304e-12
-2.13096e-10
-3.23376e-11
4.37252e-12
1.83911e-10
1.77659e-10
1.41005e-11
1.28939e-11
3.61577e-11
-6.1081e-12
-3.63033e-11
-1.13858e-12
6.96848e-13
2.10417e-11
9.29617e-12
5.00478e-14
1.00858e-11
5.80538e-11
7.39411e-11
9.47469e-13
2.66466e-10
1.34045e-10
-1.84866e-09
-4.45932e-09
-3.05632e-09
-1.33961e-10
-8.17889e-11
4.8837e-10
4.34388e-10
3.14448e-12
-2.79449e-10
-5.28838e-10
-2.87528e-10
2.34801e-11
1.26231e-13
1.58886e-10
3.01474e-10
1.8201e-10
-4.68809e-10
-1.12211e-09
-1.78435e-10
-3.1634e-10
-3.07373e-10
4.36673e-10
2.17798e-10
3.16429e-14
4.67423e-11
2.92951e-11
5.77926e-13
-2.96722e-12
-3.68233e-11
-1.75502e-11
-1.9401e-12
-2.19348e-12
5.73269e-12
1.13757e-11
1.10827e-10
1.58071e-10
5.10695e-11
2.63158e-11
2.90792e-10
-5.86919e-11
-2.10103e-09
-4.35004e-09
-2.96409e-09
-2.96975e-10
2.05811e-11
7.66124e-10
1.14867e-09
4.22134e-10
-2.82459e-11
-2.71918e-10
-7.84406e-11
-7.14083e-14
1.38271e-11
1.78849e-11
3.78254e-14
9.91793e-14
-1.09349e-11
-1.8439e-10
-1.32342e-10
-1.36962e-10
-4.58729e-10
8.76113e-10
8.14491e-10
1.63606e-11
1.29278e-10
9.33735e-11
-6.27898e-12
-1.8068e-11
-1.25339e-12
-1.42089e-11
-2.0427e-14
3.4902e-12
6.60671e-11
8.62408e-11
2.99386e-11
1.1297e-12
3.54409e-11
2.31352e-11
1.34297e-12
-2.45525e-11
-4.04869e-10
-1.5297e-09
-2.13643e-09
-3.98214e-10
5.22852e-11
3.33989e-10
1.22702e-09
8.43319e-10
4.71195e-11
-4.23211e-13
-7.62863e-15
-7.97205e-14
3.09154e-12
7.4201e-11
1.45728e-10
3.47962e-11
-2.04921e-12
-5.03293e-12
-7.74385e-12
-2.86485e-10
-5.4846e-10
-5.68791e-11
5.59611e-11
-2.71077e-13
-1.17302e-10
-1.46996e-10
6.32877e-11
5.60298e-11
5.03926e-12
6.85681e-13
1.57692e-11
1.65351e-10
4.72322e-10
3.90395e-10
2.95598e-11
1.97185e-10
8.23175e-10
7.54154e-10
1.10816e-10
-3.11564e-12
-2.32361e-10
-3.59755e-10
-2.10979e-10
-5.40809e-11
1.12877e-12
4.22036e-11
1.87756e-10
1.71654e-10
3.15541e-15
3.11456e-12
6.22317e-12
1.31796e-13
3.76235e-11
1.40421e-10
6.23434e-11
-7.80719e-11
-2.04712e-12
-1.03536e-10
-7.84873e-11
-2.96056e-11
-2.75157e-10
-2.20506e-10
-8.35419e-11
-3.0917e-12
-2.36757e-11
4.78915e-11
1.884e-10
1.73713e-10
8.67111e-11
5.05523e-11
6.7607e-11
1.1094e-10
1.19157e-10
6.14466e-11
3.12939e-12
3.0505e-10
8.84102e-10
7.2631e-10
5.48851e-11
-5.62048e-12
-7.43499e-10
-1.46132e-09
-6.31851e-10
-3.54708e-11
3.87681e-12
8.54734e-11
1.05513e-10
2.72923e-11
2.39976e-11
2.32165e-12
-7.44774e-12
8.27784e-12
8.82101e-13
3.03529e-11
-2.93555e-12
-1.51709e-10
-3.74484e-11
-6.75657e-11
-2.32556e-10
-8.40288e-11
-3.4303e-13
-6.95613e-12
2.47528e-11
5.23925e-12
-1.96122e-11
-8.40842e-12
7.09598e-13
2.00448e-12
4.98782e-11
1.93477e-10
2.88508e-10
9.77187e-11
-1.15999e-10
-3.23462e-11
3.20636e-14
2.6811e-10
1.17039e-09
1.15084e-09
-3.99723e-11
-1.18499e-10
-2.74607e-10
-1.47391e-09
-1.24544e-09
-1.59814e-10
3.92987e-11
5.95734e-11
3.38862e-10
2.50421e-10
-8.86349e-15
-6.53066e-15
-3.41317e-13
9.51869e-14
6.4153e-14
2.25496e-14
1.14387e-13
-5.1394e-14
-7.74504e-14
1.59156e-13
3.37595e-13
4.19708e-13
1.18736e-13
-7.83752e-13
1.68585e-13
6.70733e-13
7.9392e-13
1.37018e-12
2.22583e-12
1.54869e-14
-1.72639e-14
-9.6723e-13
-1.42818e-13
-6.76213e-13
-5.84747e-12
-9.59899e-12
-6.46259e-12
-2.45348e-12
-4.43523e-13
5.38465e-16
5.50282e-14
1.29123e-13
4.14986e-13
8.36378e-13
9.99082e-13
1.14337e-12
8.25466e-14
1.37875e-14
2.69998e-14
1.399e-13
-1.98787e-12
-9.05156e-12
-2.8681e-12
2.19027e-13
1.84424e-12
3.28797e-12
1.06889e-12
-4.51266e-13
-8.52598e-14
-1.25978e-15
1.62411e-12
1.03237e-11
2.05133e-11
2.86287e-11
6.27122e-11
1.14157e-10
1.67183e-10
1.73925e-10
8.34674e-11
4.34819e-14
-2.24074e-11
-1.19116e-10
-4.77671e-12
-4.48594e-11
-2.1495e-10
-2.45822e-10
-1.14866e-10
-2.2401e-11
3.1279e-12
3.42564e-12
1.73404e-12
8.86818e-13
7.27754e-13
1.01648e-12
-6.8988e-13
7.16292e-12
2.40559e-13
1.26441e-11
7.01726e-12
-3.13205e-13
-1.86775e-11
-4.56046e-11
-1.23248e-11
2.89413e-15
8.80997e-12
8.51255e-12
1.13883e-12
-4.39276e-14
-1.76462e-12
-2.7852e-12
-8.67882e-15
2.27939e-12
1.65518e-11
3.57165e-11
6.28792e-11
1.07793e-10
1.69821e-10
2.00533e-10
1.10352e-10
1.84127e-13
-1.88097e-11
-4.22351e-10
-1.10157e-10
-5.08664e-11
-3.33955e-10
-3.80012e-10
-1.44095e-10
-1.51221e-11
5.56513e-13
1.2028e-12
4.36395e-12
3.70465e-12
2.10409e-12
2.51677e-13
-1.36301e-13
-1.94961e-12
4.56889e-15
2.5476e-11
2.89464e-11
-1.05686e-11
-4.17002e-11
-9.08752e-11
-2.66572e-11
5.97531e-14
2.46415e-11
2.472e-11
3.87312e-12
4.02535e-15
-4.90223e-12
-1.01283e-11
-2.08913e-12
6.94875e-14
8.02259e-12
1.79806e-11
2.44535e-11
4.48971e-11
9.37241e-11
1.47747e-10
1.23272e-10
2.16465e-12
-4.46267e-11
-9.01094e-10
-5.84197e-10
-1.74889e-11
-3.23123e-10
-4.1814e-10
-1.26716e-10
-2.26877e-12
8.96707e-12
7.06963e-11
1.04743e-10
7.02954e-11
2.50631e-11
-4.81494e-12
-1.1105e-11
-8.87352e-13
-2.48399e-13
2.70318e-11
7.73856e-11
-2.76939e-11
-9.15306e-11
-1.60364e-10
-6.20638e-11
1.01217e-15
5.04212e-11
6.17095e-11
1.10318e-11
6.30826e-13
-2.97291e-12
-1.86029e-11
-1.17802e-11
3.88118e-13
2.57633e-12
9.21035e-12
1.45693e-11
3.95096e-11
1.04849e-10
1.98483e-10
2.6506e-10
7.99758e-11
-9.86723e-12
-1.08821e-09
-1.66822e-09
-8.71158e-12
-2.73761e-10
-4.11023e-10
-1.82134e-10
-2.6253e-12
2.51421e-11
1.79055e-10
2.63978e-10
1.7546e-10
5.44295e-11
-2.10512e-11
-5.6704e-11
-2.70575e-11
-5.48858e-12
2.21032e-11
1.40961e-10
-2.04086e-11
-1.73527e-10
-2.97987e-10
-1.65314e-10
6.69086e-13
6.49546e-11
1.13663e-10
2.79077e-11
8.73702e-13
1.15059e-11
-2.55415e-11
-4.41658e-11
-2.13473e-12
2.21247e-12
8.41162e-16
2.48987e-12
2.9313e-11
1.24413e-10
2.92178e-10
4.65775e-10
2.8938e-10
-5.74477e-12
-5.25028e-10
-2.61341e-09
-2.32867e-10
-2.88566e-10
-1.07931e-10
-2.02477e-10
-1.13967e-11
1.82245e-11
2.11466e-10
3.45696e-10
2.18854e-10
5.50562e-11
-1.74339e-11
-7.01466e-11
-8.3429e-11
-3.36925e-11
1.33158e-11
1.80735e-10
6.37532e-11
-1.88106e-10
-5.19875e-10
-3.65735e-10
-1.55712e-12
5.86174e-11
1.80981e-10
6.68978e-11
5.23533e-13
2.81735e-11
1.75567e-12
-8.25866e-11
-2.04184e-11
2.22902e-11
1.05219e-11
8.52621e-13
1.20481e-11
1.20841e-10
4.33065e-10
7.98822e-10
5.42253e-10
-2.00332e-11
-9.02619e-11
-2.41139e-09
-6.18284e-10
-3.7119e-10
4.63366e-10
1.13308e-10
-4.04352e-12
8.98577e-12
1.47407e-10
2.24108e-10
9.78876e-11
6.25682e-12
-2.65157e-13
-8.31288e-12
-7.10949e-11
-9.35715e-11
-2.11884e-11
1.83532e-10
1.85646e-10
-9.17163e-11
-6.56199e-10
-6.62328e-10
-2.98996e-11
2.68653e-11
2.07188e-10
1.29616e-10
1.69992e-11
4.91052e-12
4.6347e-11
-3.03812e-11
-2.44778e-11
7.52967e-11
5.38546e-11
1.6565e-11
5.09392e-16
6.97641e-11
5.24195e-10
1.18854e-09
8.20144e-10
-3.30603e-11
-1.04931e-11
-1.25634e-09
-5.4517e-10
-4.29252e-10
6.80331e-10
4.5361e-10
2.59203e-11
1.06548e-11
1.0149e-10
1.05948e-10
7.2052e-12
1.07442e-11
-1.53608e-10
-2.19397e-10
-8.2453e-12
-7.88208e-11
-1.03521e-10
1.42338e-10
2.61014e-10
-9.34073e-14
-5.06483e-10
-9.18577e-10
-9.48622e-11
7.60348e-12
1.84931e-10
1.64018e-10
3.36723e-11
7.7781e-12
8.10638e-12
1.15083e-10
1.6303e-10
2.81667e-10
2.18485e-10
7.55124e-11
8.62906e-12
3.23766e-11
5.22022e-10
1.25448e-09
8.79299e-10
-7.67029e-11
-3.11359e-10
-1.91413e-10
-1.7444e-10
-3.15689e-10
4.55243e-10
3.48873e-10
1.09026e-11
3.96313e-11
1.4984e-10
1.13917e-10
1.19053e-13
3.70008e-11
-7.2707e-10
-1.6986e-09
-7.54739e-10