/*--------------------------------*- C++ -*----------------------------------*\
| =========                 |                                                 |
| \\      /  F ield         | OpenFOAM: The Open Source CFD Toolbox           |
|  \\    /   O peration     | Version:  5.0                                   |
|   \\  /    A nd           | Web:      www.OpenFOAM.org                      |
|    \\/     M anipulation  |                                                 |
\*---------------------------------------------------------------------------*/
FoamFile
{
    version     2.0;
    format      ascii;
    class       volScalarField;
    location    "50.4676134421789371";
    object      WWVMean;
}
// * * * * * * * * * * * * * * * * * * * * * * * * * * * * * * * * * * * * * //

dimensions      [0 3 -3 0 0 0 0];

internalField   nonuniform List<scalar> 
60000
(
-1.62157e-12
-1.47879e-12
-4.9396e-13
-8.38407e-15
4.4802e-14
1.40723e-13
1.12944e-13
3.55136e-14
2.63753e-15
-8.64481e-15
-2.65925e-13
-3.67809e-13
-1.16385e-13
-2.63427e-14
-1.45509e-14
-3.09139e-13
-7.99959e-14
1.82655e-12
5.4406e-12
6.15952e-12
3.07147e-12
2.01331e-13
-1.85344e-13
-5.23704e-13
1.68474e-12
2.48522e-12
1.31907e-12
-1.08555e-12
-1.68092e-12
-2.28511e-13
-2.62516e-13
-2.2684e-12
-5.41062e-12
-7.58888e-12
-5.59123e-12
5.3048e-13
-8.38234e-14
-1.65844e-13
-8.45436e-13
-1.24488e-12
-3.01118e-11
-9.85209e-12
-3.82423e-13
4.11638e-13
5.67117e-12
4.37644e-12
-9.90261e-13
-1.02165e-13
1.66778e-13
-1.02457e-11
-2.80027e-11
-1.81113e-11
-1.46566e-12
1.68512e-13
2.62157e-12
8.88519e-12
2.5174e-11
3.58805e-11
1.65245e-11
-1.53779e-11
-2.57849e-12
-1.31183e-11
-1.03957e-11
6.76317e-11
8.07912e-11
3.41677e-11
1.03732e-11
3.93661e-12
-1.73934e-12
-5.39292e-13
-8.90033e-13
-3.0862e-12
-2.49121e-11
-4.83872e-11
-5.25186e-11
-8.85534e-12
1.04335e-12
1.43751e-12
-1.8766e-11
-3.85428e-11
-5.85301e-11
-2.38477e-11
-4.98148e-13
6.89368e-13
7.54338e-12
1.4191e-11
1.46258e-12
-9.85735e-13
1.22717e-12
-1.366e-11
-6.13794e-11
-5.93722e-11
-1.0507e-11
2.12688e-14
6.95182e-12
3.6547e-11
8.14923e-11
9.15085e-11
2.9143e-11
-4.71085e-11
-1.47195e-12
-1.64287e-10
-1.0574e-10
3.2683e-10
2.53415e-10
4.18609e-11
3.223e-13
8.3729e-13
-1.24833e-13
-8.83291e-14
-9.21726e-13
2.80123e-12
1.32468e-13
-2.37198e-11
-4.5011e-11
-2.32262e-11
2.56604e-12
1.86619e-12
9.99158e-12
-3.2811e-11
-1.04156e-10
-6.46619e-11
-2.42433e-12
1.1138e-12
8.5178e-12
1.76205e-11
1.19201e-11
-4.35497e-12
1.57762e-13
2.68562e-13
-8.99839e-11
-1.22082e-10
-2.86708e-11
-9.59606e-15
1.4746e-11
7.31122e-11
1.37892e-10
1.32697e-10
3.82052e-11
-8.92081e-11
-2.59005e-12
-4.36207e-10
-2.44439e-10
8.51948e-10
4.89599e-10
3.04988e-11
1.74214e-11
4.79001e-12
-1.81234e-11
-1.13708e-11
-6.0194e-12
-6.82796e-13
5.16815e-12
-1.30005e-11
-5.25704e-11
-4.30781e-11
-6.01954e-13
1.19656e-13
1.72144e-11
-7.86911e-12
-1.40487e-10
-2.2373e-10
-2.97877e-11
1.88486e-13
8.37548e-12
1.54781e-11
2.06402e-11
-4.11511e-12
2.48733e-14
1.33129e-11
-1.13904e-10
-3.24008e-10
-1.30077e-10
-1.37928e-12
2.17133e-11
1.53605e-10
2.58964e-10
1.93276e-10
4.9988e-11
-1.84206e-10
-2.71433e-11
-6.72607e-10
-5.84262e-10
1.82673e-09
1.04321e-09
5.76209e-11
3.38899e-11
3.26177e-12
-5.56707e-11
-4.34844e-11
-1.83293e-11
-5.84285e-12
1.48618e-12
-3.00421e-12
-5.4852e-11
-9.99456e-11
-1.91487e-11
8.32496e-12
3.14109e-12
1.95735e-11
-3.02402e-11
-3.31013e-10
-1.604e-10
-1.44502e-12
3.31265e-12
9.6165e-12
1.65617e-11
8.24658e-12
2.42157e-12
3.51476e-12
-5.55613e-11
-5.81361e-10
-4.67716e-10
-3.45574e-11
1.36315e-11
3.07285e-10
5.17103e-10
2.51926e-10
4.61633e-11
-1.83683e-10
-1.36901e-10
-6.67205e-10
-1.17607e-09
2.94915e-09
1.86565e-09
1.11961e-10
3.60314e-11
1.42501e-11
-4.45599e-11
-4.74476e-11
-2.52935e-11
-8.63752e-12
-2.05822e-12
-1.41999e-12
-1.9776e-11
-9.10676e-11
-6.36384e-11
2.90253e-11
1.35413e-11
4.6552e-12
3.90519e-12
-1.38609e-10
-2.63784e-10
-2.63549e-11
2.04906e-13
2.64116e-12
6.34371e-12
1.41541e-11
1.48436e-11
8.39883e-13
-1.22485e-11
-6.21597e-10
-9.08167e-10
-1.44785e-10
-9.7022e-13
5.86611e-10
1.0548e-09
3.25976e-10
1.53892e-11
-6.67165e-11
-1.86495e-10
-4.17867e-10
-1.54498e-09
3.49704e-09
2.2813e-09
1.3724e-10
2.16297e-11
1.4678e-11
-2.5646e-11
-3.16022e-11
-1.56422e-11
-4.27226e-12
-9.97124e-13
-1.18639e-12
-8.09052e-12
-4.21129e-11
-6.0208e-11
2.4002e-11
6.49947e-11
2.13475e-11
1.56605e-11
-8.92366e-12
-1.31991e-10
-3.8848e-11
3.3082e-12
7.94999e-15
2.91311e-13
2.83436e-12
1.72541e-11
5.57047e-12
-4.0264e-12
-4.35552e-10
-9.77592e-10
-1.64588e-10
-2.63202e-11
1.0083e-09
1.56236e-09
3.7971e-10
2.06924e-12
-2.67892e-13
-5.53316e-11
-2.19495e-10
-1.49632e-09
3.01907e-09
2.02923e-09
1.60935e-10
1.68782e-12
6.59226e-12
-1.50426e-11
-2.14007e-11
-6.19075e-12
-1.01088e-13
-3.25483e-12
-2.19917e-12
-1.22081e-12
-2.13006e-11
-3.47936e-11
1.00408e-11
8.0633e-11
1.06854e-10
1.15458e-10
5.32636e-13
-2.68256e-11
-9.53594e-12
9.64875e-12
4.66956e-13
-4.18066e-16
-1.34866e-12
1.34882e-12
7.01882e-13
-3.68239e-12
-2.44726e-10
-5.19061e-10
-1.76717e-11
-5.32296e-11
1.20639e-09
1.41966e-09
3.14796e-10
3.48415e-13
-5.00965e-11
-1.10098e-11
-1.62347e-10
-9.84953e-10
1.96099e-09
1.42662e-09
2.34235e-10
1.62547e-11
6.85986e-13
-1.03648e-11
-1.38942e-11
-9.84407e-13
-4.25381e-12
-2.19274e-11
-3.04057e-11
-5.17629e-12
-1.04529e-11
-3.38293e-11
-5.50183e-12
5.0204e-11
1.44414e-10
1.85575e-10
2.82072e-11
4.53829e-12
3.67716e-11
3.71752e-11
1.28536e-12
6.65776e-13
-2.41508e-12
-2.84264e-12
-6.1855e-12
-6.33915e-12
-1.9024e-10
-1.51375e-10
-7.06932e-11
1.08308e-11
1.06328e-09
8.66073e-10
1.79071e-10
3.06236e-13
-6.46545e-11
-1.14907e-10
-1.52159e-10
-3.81821e-10
8.56568e-10
9.09384e-10
4.31197e-10
8.69447e-11
2.15818e-13
-8.93148e-12
-8.81368e-12
-3.56263e-13
-8.06157e-12
-3.44596e-11
-7.31195e-11
-3.23504e-11
-2.32023e-12
-4.12366e-11
-3.46633e-11
2.10922e-12
8.75146e-11
8.59907e-11
6.30231e-11
6.69105e-12
1.36534e-10
1.5037e-10
1.39389e-11
3.18118e-12
-7.99335e-12
-4.90496e-13
-7.6946e-12
-8.39001e-12
-2.2508e-10
-1.11584e-10
-1.2053e-10
1.69306e-10
9.58422e-10
5.72631e-10
8.2852e-11
1.71858e-13
-1.45755e-11
-6.36621e-11
-6.29e-11
-6.16417e-11
1.78253e-10
5.9131e-10
6.43966e-10
1.49763e-10
1.89688e-13
-9.16009e-12
-6.13747e-12
-1.02405e-12
7.80267e-12
-2.03745e-11
-1.18677e-10
-7.79898e-11
-1.178e-12
-3.86976e-11
-6.08709e-11
-4.7466e-11
-2.57566e-11
-1.53524e-10
2.0954e-11
3.1679e-12
2.33711e-10
2.81936e-10
4.72845e-11
1.57297e-12
-8.15911e-12
-1.4954e-12
-1.28007e-11
-4.49215e-12
-2.72346e-10
-2.11699e-10
-3.38476e-11
2.33067e-10
9.36552e-10
3.81343e-10
4.62083e-12
1.24833e-12
-7.28884e-12
-4.39583e-11
-2.49531e-11
-3.82774e-12
1.38712e-11
4.27367e-10
6.93498e-10
1.43398e-10
-4.47066e-13
-1.16558e-11
-5.22764e-12
1.7119e-12
6.49696e-11
5.574e-11
-1.81532e-10
-1.8231e-10
-1.50407e-11
-2.33132e-11
-5.62154e-11
-6.81785e-11
-1.34103e-10
-3.57525e-10
-1.09603e-10
2.09878e-12
1.49467e-10
2.1223e-10
5.86882e-11
7.11398e-13
4.88374e-13
-1.04413e-11
-2.826e-11
-1.57912e-12
-3.18299e-10
-4.54175e-10
-2.86753e-12
1.4378e-10
7.08245e-10
1.03563e-10
1.00107e-10
2.89715e-11
-2.65655e-11
-6.7562e-10
-6.31381e-10
-1.02108e-10
3.14496e-12
3.87709e-10
5.61905e-10
8.30078e-11
-1.14076e-13
-1.68169e-11
-8.86722e-13
5.80315e-13
1.02196e-10
2.15295e-10
-2.29153e-10
-4.34481e-10
-8.90738e-11
-7.57819e-12
-3.31328e-11
-3.95789e-11
-1.50289e-10
-3.39467e-10
-2.1909e-10
9.77733e-12
7.47335e-12
4.56637e-11
4.26249e-11
1.8778e-11
3.19507e-13
6.40125e-12
-1.16169e-11
-4.10567e-11
-1.40055e-10
-6.97283e-10
-6.8159e-11
3.06083e-11
2.85342e-10
2.14582e-11
5.33029e-10
1.25661e-10
6.23937e-11
-1.2549e-09
-1.85812e-09
-2.95969e-10
2.94392e-12
2.58627e-10
2.88977e-10
3.48484e-11
-2.60143e-13
-1.04035e-11
1.81293e-11
1.89807e-11
2.79593e-11
2.37607e-10
-1.95672e-10
-8.88889e-10
-3.82513e-10
-6.56037e-12
-1.32164e-11
-6.02988e-12
-9.85725e-11
-1.99804e-10
-1.81938e-10
-5.63999e-12
1.66532e-11
2.17914e-13
1.5654e-11
3.71284e-11
2.33493e-11
6.41834e-13
2.67932e-11
-5.24742e-11
-5.57402e-12
-3.58768e-10
-1.78232e-10
-1.52777e-12
4.50069e-12
2.35777e-10
6.82783e-10
1.53102e-10
3.97841e-11
-1.21949e-09
-2.70266e-09
-7.15291e-10
-1.07744e-12
1.06954e-10
1.96539e-10
5.3773e-11
4.21112e-13
5.56219e-12
5.01956e-11
1.1122e-10
3.32492e-11
5.47568e-11
-1.43843e-10
-1.42922e-09
-1.16921e-09
-1.33464e-10
1.44878e-13
3.25848e-11
-3.99604e-11
-1.18429e-10
-8.61944e-11
-1.21884e-11
5.58953e-12
5.12819e-12
1.18644e-12
2.72229e-12
7.88918e-12
4.99245e-12
4.23252e-12
-6.18064e-13
-7.87735e-11
-3.7477e-11
-2.05912e-10
-3.36615e-11
4.50688e-11
1.46165e-10
1.61419e-10
4.17124e-11
-2.95233e-12
-7.82579e-10
-2.31182e-09
-9.99107e-10
-1.30217e-11
8.40167e-11
3.01819e-10
1.43729e-10
6.52086e-12
1.11438e-11
6.83877e-11
1.67991e-10
1.40432e-10
4.69771e-12
-9.35453e-11
-1.50639e-09
-2.36164e-09
-6.98044e-10
-4.55366e-12
4.14227e-11
3.27163e-11
-5.26652e-11
-3.46956e-11
-2.68626e-13
7.17786e-13
1.82733e-12
2.24405e-11
1.10762e-11
-7.31419e-14
-1.59228e-12
2.37874e-15
-2.0879e-12
-6.28533e-11
-1.64079e-12
-1.60153e-10
-4.83023e-11
2.25217e-11
4.94321e-14
4.49381e-12
1.37866e-11
-2.32676e-12
-4.07172e-10
-1.38562e-09
-6.99578e-10
-6.0762e-12
1.03404e-10
3.7469e-10
1.61425e-10
7.42934e-12
4.8178e-12
4.88553e-11
1.84727e-10
2.13804e-10
2.35359e-11
-1.9512e-11
-9.55792e-10
-2.80295e-09
-1.7979e-09
-1.49758e-10
4.59084e-12
6.98871e-11
9.64149e-13
-6.5464e-12
-9.75102e-15
2.477e-12
3.05253e-13
2.18246e-11
1.4335e-11
-1.65587e-11
-9.68421e-13
-3.31264e-13
-3.31957e-12
-2.43317e-11
-2.11974e-12
-3.35677e-11
-1.15124e-13
8.49182e-12
2.01459e-11
2.08103e-11
3.27274e-11
-1.1969e-11
-1.39847e-10
-7.10563e-10
-3.43554e-10
1.2069e-11
5.72932e-11
1.61126e-10
3.27304e-11
2.49282e-13
2.23947e-12
3.08533e-11
1.77752e-10
3.76492e-10
5.48793e-11
-5.90224e-11
-2.43791e-10
-1.6399e-09
-1.94786e-09
-5.25881e-10
-6.54696e-12
1.0665e-11
-8.24205e-14
-1.78232e-12
-2.22005e-12
8.94937e-12
1.6561e-12
4.82668e-11
1.29089e-10
-1.11711e-10
-1.40252e-10
-5.27624e-12
-3.93116e-12
-1.01166e-13
-5.95541e-12
-8.15658e-12
1.06661e-11
3.31826e-11
3.16071e-12
1.11068e-10
7.79649e-11
-5.11528e-11
-1.62308e-12
-1.05736e-10
-7.98554e-11
2.72337e-11
7.96741e-12
2.44479e-12
1.21654e-12
3.49181e-13
3.41961e-11
3.13289e-11
7.45982e-11
5.15737e-10
1.35009e-10
-4.09783e-10
-1.7078e-11
-4.55931e-10
-1.03321e-09
-6.2261e-10
-9.73373e-11
-1.93369e-12
-7.8214e-11
-1.39583e-10
-6.34666e-11
7.63405e-11
9.40081e-12
1.32051e-10
3.59952e-10
-1.35391e-10
-5.83758e-10
-9.29509e-11
-7.0791e-11
-9.26238e-11
-6.06819e-12
8.65438e-13
1.28702e-11
8.66252e-12
1.51369e-12
2.79858e-11
3.78889e-11
-1.0082e-12
-2.67006e-11
-4.14402e-12
-2.87712e-12
2.52781e-12
4.76263e-12
9.2301e-13
2.32767e-11
8.89925e-11
1.1849e-10
5.28034e-12
3.14748e-10
9.28357e-10
1.43155e-10
-8.02235e-10
-2.80025e-10
-2.31937e-11
-2.49267e-10
-2.6639e-10
-1.30091e-10
-5.93722e-11
-6.75281e-11
-1.82175e-10
-1.45464e-10
2.88787e-11
6.4562e-12
5.49941e-11
1.59078e-10
-3.83606e-11
-5.15654e-10
-3.06254e-10
-2.69606e-11
-3.00938e-10
-9.68478e-11
6.02845e-11
3.32416e-11
4.5152e-12
7.64989e-13
6.38875e-12
7.07723e-12
1.89327e-12
-8.31906e-15
-1.57463e-12
-1.78223e-12
-7.83378e-14
-8.12138e-16
1.93124e-12
1.67053e-11
4.64219e-11
4.74612e-11
2.28518e-12
1.11103e-10
3.30706e-10
-3.74376e-10
-1.36019e-09
-6.58374e-10
-1.71322e-11
-3.88252e-11
-2.66256e-11
3.23699e-11
1.17269e-11
2.4382e-11
-4.06093e-11
-2.67637e-11
6.1763e-12
7.60699e-12
2.63083e-13
6.29968e-12
-1.52964e-11
-1.64511e-10
-1.65346e-10
-2.57088e-12
-1.49913e-10
7.52781e-12
2.47878e-10
1.1408e-10
1.22309e-11
5.40136e-12
6.62363e-11
9.21168e-11
3.30384e-11
-7.62654e-12
-1.5254e-11
-1.69155e-11
-1.16935e-11
6.69981e-12
9.45869e-12
2.50189e-13
1.44823e-11
3.31658e-11
2.43417e-11
6.22016e-13
3.80067e-11
-1.19532e-10
-7.64076e-10
-8.20564e-10
-1.64083e-10
1.7084e-13
1.16904e-10
3.07343e-10
2.0425e-10
2.86326e-12
8.30935e-14
-1.01443e-12
1.29607e-13
1.31367e-11
6.76687e-11
3.89821e-11
1.13202e-13
-2.29262e-11
-3.64869e-11
-1.00777e-11
-1.58063e-10
-1.22771e-10
-3.40463e-11
-3.8246e-11
-8.55431e-13
-4.08777e-11
-1.21157e-11
4.73185e-11
3.11283e-11
7.15272e-12
-7.07228e-12
-1.18628e-11
3.70991e-11
1.12749e-10
7.12824e-11
2.99041e-12
1.67176e-10
3.41935e-10
2.1929e-10
4.46318e-11
1.09871e-12
-3.4936e-11
-2.12347e-10
-1.93229e-10
-3.2065e-11
-2.62598e-12
1.29096e-11
5.66533e-11
3.49356e-11
-7.46895e-14
-2.91283e-12
-1.37476e-13
1.26058e-12
1.801e-11
1.15005e-10
9.29765e-11
-7.23316e-12
-1.88451e-11
-1.31099e-10
-2.61842e-11
-5.20727e-11
-1.43e-10
-1.49644e-10
-9.00372e-11
-1.2583e-12
-4.72768e-11
-3.97501e-11
1.25914e-11
3.69424e-11
5.6162e-11
8.85551e-11
1.24582e-10
1.31961e-10
8.09519e-11
8.61448e-12
3.89437e-11
2.10337e-10
3.077e-10
1.52733e-10
-4.55462e-12
-9.95477e-13
-1.29488e-10
-3.63141e-10
-2.26085e-10
-2.45043e-11
8.3187e-14
8.33382e-12
9.17666e-12
1.22593e-12
-3.41937e-13
-2.25639e-11
7.01167e-13
6.53614e-11
1.31785e-11
4.46761e-11
1.02543e-10
-3.96745e-11
-1.68453e-11
-8.42981e-11
-2.31809e-10
-8.07482e-11
-4.68819e-13
-1.44403e-11
-5.6898e-11
-1.05459e-10
-7.44762e-11
-1.96162e-11
-5.73439e-13
1.66878e-12
3.10094e-11
1.18586e-10
1.99657e-10
1.7542e-10
7.44375e-11
1.73479e-11
1.60983e-12
1.0751e-10
3.47737e-10
2.72169e-10
-1.14931e-10
-9.84826e-11
-3.88082e-11
-3.30608e-10
-2.12576e-10
2.74784e-11
7.34169e-12
2.79853e-11
4.76592e-11
2.69648e-12
1.54189e-15
-8.81985e-14
-1.93422e-15
-5.69833e-14
-5.00728e-14
-4.568e-14
4.84519e-14
4.13787e-15
1.86272e-13
4.28607e-13
3.73183e-13
3.30239e-13
3.67401e-13
1.90041e-13
-5.73071e-14
-2.00914e-13
-2.32155e-13
-2.5023e-14
-7.21528e-13
-5.33247e-13
4.16781e-12
1.30221e-12
1.27893e-14
-2.2076e-12
-8.18755e-12
-1.33121e-11
-1.36874e-11
-1.00154e-11
-3.17475e-12
-1.48224e-13
1.80695e-14
-2.44439e-14
-7.69065e-13
-1.16282e-12
-1.94975e-13
5.74451e-13
3.42156e-13
7.12665e-14
1.96138e-14
6.57225e-16
-3.69306e-12
-1.84481e-12
-1.137e-13
2.85132e-15
2.53134e-14
2.92081e-13
1.14729e-12
4.06226e-13
3.08003e-13
2.0032e-12
3.32788e-12
7.82245e-12
9.38923e-12
6.84425e-12
5.04417e-12
8.04265e-12
1.65575e-11
8.07835e-12
6.09843e-12
1.26618e-11
-4.06182e-11
-6.26395e-12
-7.13794e-14
-1.23307e-11
5.63124e-12
1.29712e-11
-9.18089e-12
-1.61561e-11
-3.4414e-12
1.32328e-12
2.5898e-12
1.3131e-11
1.48389e-11
2.07445e-13
-4.31839e-12
8.17898e-13
3.43608e-12
2.21865e-13
-2.88332e-13
-2.33898e-12
-2.04653e-11
-7.81992e-12
-4.85385e-13
1.9315e-13
1.25358e-12
4.95099e-13
1.20081e-12
2.1496e-12
-1.71737e-13
-3.59698e-12
-1.24034e-11
4.08444e-12
1.15835e-11
3.37306e-12
1.06945e-13
1.55321e-13
7.06975e-12
2.62856e-11
8.8346e-13
1.67793e-11
-1.99766e-10
-1.19018e-10
-8.21296e-12
-9.1674e-12
1.54769e-10
1.07983e-10
1.47595e-11
-8.18896e-13
-4.58798e-14
6.201e-13
8.64364e-12
2.30247e-11
2.51686e-11
8.11749e-12
-8.61239e-12
-4.90909e-12
9.82229e-14
3.67438e-13
-8.55731e-13
-1.24726e-11
-5.14532e-11
-2.0467e-11
-4.96509e-13
4.63742e-14
1.91169e-12
1.89777e-12
8.38884e-13
3.95434e-12
-7.19201e-12
-9.15278e-13
-2.58671e-11
-5.71725e-12
9.59561e-12
3.06381e-13
2.5945e-11
4.44396e-11
5.97802e-12
1.88053e-11
1.77728e-11
-5.3912e-12
-4.68529e-10
-4.92104e-10
-9.96973e-12
-1.55138e-11
4.88432e-10
2.27488e-10
1.10406e-11
-6.89056e-13
-4.64169e-12
7.80724e-12
3.325e-11
4.96722e-11
3.70068e-11
5.96906e-13
-3.62635e-11
-2.46584e-11
-5.03765e-12
9.91663e-13
-8.55008e-15
-1.54162e-11
-9.62369e-11
-6.21943e-11
-1.73614e-12
1.92127e-14
1.89958e-12
5.24045e-12
5.34278e-14
5.91813e-12
-3.34418e-11
-1.07232e-11
-2.43937e-11
-2.76707e-11
1.27754e-11
2.65329e-12
9.92349e-11
1.76071e-10
5.3122e-11
1.60721e-11
7.84262e-11
-1.22415e-12
-4.91803e-10
-1.32292e-09
-1.43331e-11
-8.63516e-11
1.27058e-09
5.95245e-10
2.54373e-11
-2.45503e-12
-1.91423e-11
3.74226e-12
4.30159e-11
5.78866e-11
3.67474e-11
-8.73433e-12
-8.39826e-11
-9.91304e-11
-3.18633e-11
-1.90958e-13
1.56084e-12
-4.84798e-12
-1.0418e-10
-1.65339e-10
-1.14547e-11
6.67747e-14
9.57384e-13
1.00977e-11
5.1101e-12
1.35424e-12
-3.79288e-11
-1.08162e-10
-5.8998e-13
-3.73432e-11
4.84816e-12
6.63049e-12
2.22374e-10
3.95073e-10
1.31949e-10
1.06927e-11
1.6191e-10
-4.91361e-12
-1.43143e-10
-1.8674e-09
-1.44557e-10
-2.96193e-10
2.37314e-09
1.30324e-09
7.66468e-11
-6.75343e-13
-1.89904e-11
-8.44536e-12
2.23954e-11
3.18476e-11
1.53582e-11
-9.3109e-12
-7.57278e-11
-1.80663e-10
-1.13768e-10
-1.36914e-11
1.82361e-11
2.95762e-13
-2.96383e-11
-2.8658e-10
-4.75373e-11
2.99708e-14
7.23779e-14
8.50297e-12
1.60539e-11
3.55242e-12
-6.03051e-12
-1.7408e-10
-1.23626e-10
-2.44886e-13
-1.36236e-12
1.91131e-11
3.27679e-10
4.85104e-10
1.07872e-10
2.40416e-11
1.9833e-10
1.72289e-11
-5.91095e-12
-1.45965e-09
-2.96129e-10
-4.98943e-10
3.04269e-09
1.74894e-09
9.80174e-11
6.21149e-13
-8.35839e-12
-4.32788e-12
2.92113e-12
1.67924e-12
3.2144e-15
-8.7391e-13
-2.52816e-11
-1.57694e-10
-2.2767e-10
-7.83361e-11
4.91663e-11
1.5605e-11
9.37733e-14
-2.22047e-10
-1.18004e-10
-1.64447e-14
3.24022e-12
1.44898e-12
2.06248e-11
1.62977e-11
-1.16215e-11
-2.96446e-11
-3.09017e-10
-1.66588e-10
-1.74976e-11
6.48576e-11
3.60202e-10
3.01853e-10
1.87821e-11
7.90156e-11
1.93054e-10
2.98553e-11
-9.44457e-11
-5.8201e-10
-2.1261e-10
-5.80984e-10
2.74094e-09
1.44743e-09
4.51397e-11
6.47616e-12
-2.95397e-12
-6.2803e-13
2.27287e-13
3.69102e-12
-9.56475e-12
-5.97113e-11
-1.72305e-11
-4.46382e-11
-2.32456e-10
-1.94061e-10
3.2392e-11
1.11798e-10
2.86031e-11
-4.57288e-11
-1.0099e-10
-3.7726e-14
1.6764e-11
2.70909e-12
1.1074e-11
3.80535e-12
-1.17469e-10
-7.65127e-11
-7.6187e-11
-4.96772e-10
-2.38589e-10
1.60467e-10
3.26213e-10
1.17321e-10
7.3234e-12
1.17592e-10
1.30995e-10
1.94759e-11
-2.80696e-10
-2.68894e-11
-2.87139e-11
-4.6038e-10
1.72813e-09
6.49809e-10
1.41917e-12
2.35776e-11
2.7134e-12
1.20821e-12
2.4043e-13
1.98671e-11
-1.61302e-11
-2.64304e-10
-2.76632e-10
-1.76148e-11
-1.10985e-10
-2.46543e-10
-8.06755e-11
2.12777e-10
1.02064e-10
-3.29928e-13
-2.83178e-11
6.57432e-14
1.0409e-11
4.93162e-12
1.24343e-13
-2.51674e-12
-1.77003e-10
-4.69522e-10
-1.23916e-10
-1.93052e-10
-4.28713e-10
3.37521e-10
4.3125e-10
7.06235e-11
8.10831e-12
5.20794e-11
5.81136e-11
3.10075e-12
-4.79757e-10
-2.17351e-10
-4.66647e-11
-2.18093e-10
5.45398e-10
4.50716e-11
4.59203e-11
2.99765e-11
5.21108e-12
2.19013e-12
7.65661e-13
4.17115e-11
-1.54613e-12
-4.09873e-10
-5.95627e-10
-1.88318e-10
-1.00589e-11
-1.70326e-10
-1.92926e-10
1.16794e-10
-4.09885e-11
-1.55943e-11
-1.33476e-12
1.02355e-11
5.29075e-12
5.12603e-13
4.31299e-12
-5.41318e-13
-2.58935e-11
-5.38103e-10
-8.13602e-10
-5.33556e-11
-2.00822e-10
4.66819e-10
8.56221e-10
3.69418e-10
5.03871e-11
7.15015e-12
4.70845e-11
-1.34728e-11
-4.94198e-10
-7.156e-10
-2.18691e-10
-3.26289e-11
1.11554e-12
7.8479e-11
3.28799e-11
6.92027e-12
3.39685e-12
3.58616e-12
1.75715e-12
7.36159e-11
1.78585e-11
-5.61754e-10
-7.93401e-10
-3.15106e-10
-7.91591e-12
-6.26725e-11
-1.71904e-10
-1.58121e-10
-5.35446e-10
-1.05944e-10
3.35992e-13
5.12252e-11
5.59882e-11
1.53408e-11
2.69996e-12
2.60476e-12
-1.62131e-12
-2.29755e-10
-1.25983e-09
-7.27186e-10
-1.7583e-11
4.01281e-10
1.81957e-09
1.44761e-09
2.85961e-10
2.47926e-11
1.00345e-10
-1.95552e-11
-2.26116e-10
-6.37672e-10
-1.83537e-10
-1.11124e-11
1.98607e-10
8.35957e-11
2.22932e-13
2.04006e-13
4.6677e-12
7.92048e-12
2.62169e-12
1.22968e-10
9.52157e-11
-7.80814e-10
-1.13034e-09
-4.16434e-10
-2.02592e-11
-1.62925e-11
-7.61789e-11
-3.1484e-10
-8.75404e-10
-3.05035e-10
5.5447e-12
5.50545e-11
6.69727e-11
1.24869e-11
2.35393e-12
7.95326e-12
-3.34303e-12
-7.33517e-11
-1.18522e-09
-1.65109e-09
-5.35761e-11
1.96876e-10
2.64882e-09
2.3997e-09
2.86068e-10
1.80282e-10
1.94838e-10
-7.01495e-12
-2.04965e-13
-8.72023e-11
-2.96303e-11
-2.65692e-11
1.04421e-10
3.40152e-12
2.3224e-12
4.38118e-12
1.30591e-11
1.82095e-11
6.96139e-13
1.03169e-10
2.24839e-10
-7.968e-10
-1.74968e-09
-7.62265e-10
-4.96196e-11
-5.4207e-12
-1.97092e-11
-2.43432e-10
-6.78306e-10
-3.47696e-10
1.77802e-11
1.36936e-11
1.69815e-11
1.32273e-12
1.905e-12
6.817e-12
3.90919e-12
-6.16251e-12
-6.74727e-10
-2.06733e-09
-2.93473e-10
-2.91736e-11
2.43822e-09
2.17016e-09
7.11381e-11
4.85339e-10
2.60904e-10
-1.03965e-12
-2.17769e-10
-1.73996e-10
-2.00197e-11
-6.79812e-12
1.58706e-11
6.24425e-12
6.91204e-12
8.20333e-12
9.26413e-12
1.57285e-11
1.97321e-11
1.51489e-12
1.24041e-10
-3.88648e-10
-2.13298e-09
-1.56125e-09
-2.07591e-10
-1.08507e-12
-1.13952e-11
-1.39449e-10
-3.54084e-10
-1.8093e-10
7.88195e-11
2.18351e-11
9.29951e-13
4.28453e-14
1.33236e-14
-1.81417e-13
2.77055e-12
-1.96689e-14
-1.81774e-10
-1.39633e-09
-4.88426e-10
-8.74143e-11
1.31883e-09
1.00033e-09
1.70943e-11
5.15945e-10
2.00127e-10
-2.73957e-12
-4.41303e-10
-8.00719e-10
-2.71005e-10
-3.0415e-11
2.2598e-11
2.44685e-12
2.79799e-11
4.49285e-11
4.06231e-12
1.96099e-11
8.73292e-11
1.16715e-10
5.10953e-12
-7.68908e-11
-1.7323e-09
-2.49991e-09
-6.81417e-10
-1.28219e-11
-1.48868e-11
-9.95561e-11
-1.74622e-10
-4.26219e-11
8.31359e-11
3.30348e-11
9.91411e-12
1.04458e-11
2.03007e-12
-2.88158e-12
-7.34318e-13
-3.34284e-14
-4.72017e-11
-5.6912e-10
-3.9631e-10
-2.03767e-11
3.02671e-10
2.57886e-10
8.64362e-12
1.65189e-10
6.19899e-11
6.09186e-13
-3.3905e-10
-9.11353e-10
-4.89064e-10
-4.07723e-11
3.77451e-12
2.09167e-10
4.39313e-10
2.02459e-10
5.82017e-12
4.02777e-11
2.83003e-11
-1.01141e-10
-5.30869e-11
-1.35069e-11
-9.34577e-10
-2.69779e-09
-1.42063e-09
-1.10422e-10
-8.13752e-12
-8.61913e-11
-7.45264e-11
-8.19347e-12
1.3061e-12
9.19001e-13
1.4547e-11
8.38356e-11
4.26203e-11
-3.04315e-11
-1.23852e-11
-2.30908e-13
-4.07257e-11
-2.89085e-10
-2.99819e-10
-2.72232e-12
8.31251e-11
2.8718e-10
7.39423e-11
1.10648e-11
3.20032e-11
2.33185e-13
-1.65196e-10
-6.83682e-10
-4.28944e-10
-1.13812e-11
7.23785e-11
5.45499e-10
5.67284e-10
1.68693e-10
5.14355e-12
2.21329e-11
6.67558e-11
-1.65878e-10
-5.51486e-10
-9.0947e-11
-3.65687e-10
-1.95569e-09
-2.00086e-09
-4.20886e-10
-2.61675e-12
-5.01807e-11
-1.28128e-11
-1.32643e-13
7.20605e-12
1.50456e-11
1.6455e-12
5.71993e-11
6.56715e-11
-6.11527e-11
-8.20483e-11
-5.594e-12
-4.96353e-11
-2.01847e-10
-1.43003e-10
-2.03801e-12
1.2053e-10
4.956e-10
1.73676e-10
1.07019e-11
8.64239e-11
4.63292e-12
-4.31816e-11
-3.93097e-10
-2.73109e-10
1.52092e-11
4.62937e-11
3.43069e-10
2.49434e-10
3.94017e-11
3.944e-12
3.21337e-12
4.92658e-11
6.84208e-11
-7.61638e-10
-9.1149e-10
-1.4398e-11
-7.66211e-10
-1.22663e-09
-6.37675e-10
-7.82284e-11
-2.93325e-12
-1.28988e-11
-3.09555e-13
6.62341e-11
7.41001e-11
5.57026e-12
4.56841e-11
1.26567e-10
-6.7237e-11
-2.96915e-10
-9.50807e-11
-1.94468e-11
-1.1312e-10
-2.22823e-11
-4.72464e-12
2.21722e-10
3.39461e-10
4.2271e-11
4.36951e-11
8.76325e-11
-6.36107e-12
-2.67725e-12
-3.83475e-11
-4.18034e-12
2.25958e-11
1.17994e-11
3.16397e-11
3.42395e-12
1.24194e-13
1.73555e-13
2.50311e-13
1.07152e-11
4.9445e-11
-6.43484e-10
-1.82091e-09
-4.97764e-10
-1.27357e-10
-4.03252e-10
-2.39945e-10
-1.07544e-10
-2.71011e-11
-1.31948e-10
-1.97781e-10
-4.2664e-11
1.10316e-10
1.13844e-11
9.25647e-11
2.62327e-10
3.31667e-11
-5.33014e-10
-3.70814e-10
-3.73029e-12
-9.35577e-11
-8.82633e-12
5.46366e-12
8.8568e-11
6.99698e-11
4.02833e-12
6.86344e-12
1.55595e-11
-4.83085e-12
-1.41922e-11
-2.61444e-13
1.06203e-12
9.01408e-12
3.41724e-12
2.21267e-14
5.1843e-12
2.63358e-11
2.85354e-11
3.63225e-12
1.2791e-10
1.2537e-11
-9.20744e-10
-1.96716e-09
-1.16731e-09
-3.34666e-11
-2.11906e-11
2.27502e-10
1.69691e-10
-1.23095e-11
-1.40164e-10
-2.29257e-10
-1.09095e-10
1.2021e-11
1.89393e-12
7.7972e-11
1.30259e-10
6.45253e-11
-2.4633e-10
-4.73751e-10
-5.04525e-11
-1.66089e-10
-9.68514e-11
1.97899e-10
7.81169e-11
1.15168e-12
2.1755e-11
1.12444e-11
1.32573e-13
-2.34655e-12
-1.67662e-11
-6.01533e-12
-1.43375e-12
-2.28249e-13
1.96319e-12
7.67998e-12
5.27976e-11
6.7323e-11
1.7369e-11
1.91844e-11
1.34358e-10
-8.07728e-11
-1.02988e-09
-1.90904e-09
-1.15055e-09
-8.8819e-11
2.29325e-11
3.68089e-10
4.77482e-10
1.46162e-10
-3.54154e-11
-1.13637e-10
-2.75973e-11
-1.80142e-14
7.07978e-12
6.4368e-12
5.45056e-14
2.39841e-14
-8.12364e-12
-8.92325e-11
-4.48237e-11
-8.60541e-11
-1.62838e-10
4.23951e-10
3.07544e-10
3.92579e-12
5.98579e-11
3.50471e-11
-4.48926e-12
-6.38089e-12
-1.40813e-12
-5.80729e-12
-1.08857e-13
3.15547e-12
3.08616e-11
3.48741e-11
9.91605e-12
1.75924e-12
1.64847e-11
8.14753e-12
1.46168e-12
-1.83839e-11
-2.05875e-10
-7.11724e-10
-8.77563e-10
-1.16912e-10
1.43044e-11
1.84332e-10
5.37403e-10
3.26341e-10
1.65297e-11
-3.70215e-13
-7.86818e-15
-1.80688e-14
2.69341e-12
3.82562e-11
6.118e-11
1.10655e-11
-5.09459e-13
-2.30364e-12
-7.09479e-12
-1.43861e-10
-2.25203e-10
-8.3989e-12
1.87927e-11
-1.26204e-12
-5.85488e-11
-5.32052e-11
3.23306e-11
2.10893e-11
1.59241e-12
3.60985e-13
9.29805e-12
8.32213e-11
2.09333e-10
1.5127e-10
7.2344e-12
1.12432e-10
3.75826e-10
2.99352e-10
3.40565e-11
-5.19042e-12
-1.13191e-10
-1.48056e-10
-8.08033e-11
-1.81157e-11
2.80746e-13
2.30281e-11
8.18185e-11
6.74973e-11
9.72783e-14
1.49421e-12
2.58498e-12
2.1861e-13
2.16261e-11
6.3072e-11
1.84563e-11
-3.21612e-11
-1.00478e-12
-5.08095e-11
-2.68283e-11
-2.16417e-11
-1.22546e-10
-8.79778e-11
-3.15887e-11
-7.18277e-13
-9.86636e-12
2.85953e-11
8.37799e-11
7.07283e-11
3.41785e-11
2.14847e-11
3.06134e-11
4.86334e-11
4.97561e-11
2.26809e-11
5.43692e-12
1.58911e-10
3.97132e-10
2.85663e-10
1.23434e-11
-1.22924e-11
-3.78504e-10
-6.18598e-10
-2.31841e-10
-9.9293e-12
3.77916e-12
4.042e-11
4.21494e-11
9.08182e-12
6.87876e-12
7.26316e-13
-3.37966e-12
4.1735e-12
2.79743e-13
1.61893e-11
-7.89654e-12
-6.51694e-11
-1.05652e-11
-4.04459e-11
-9.94605e-11
-2.92584e-11
-7.96021e-13
-1.65778e-12
1.11169e-11
1.06218e-12
-8.20206e-12
-2.95477e-12
3.09876e-13
1.46818e-12
2.58064e-11
8.97501e-11
1.2112e-10
2.75865e-11
-5.20825e-11
-9.75471e-12
1.08429e-12
1.49128e-10
5.36059e-10
4.54056e-10
-4.70612e-11
-3.56718e-11
-1.67192e-10
-6.64763e-10
-4.89999e-10
-4.41601e-11
1.216e-11
3.84901e-11
1.52428e-10
9.57788e-11
-6.58346e-15
-1.99107e-14
-1.848e-13
6.16578e-14
3.33376e-14
1.26243e-14
4.33906e-14
-4.27026e-14
-1.13933e-14
1.2708e-13
2.54693e-13
3.3899e-13
1.6391e-13
-1.75876e-13
7.94412e-14
2.05798e-13
1.55498e-13
2.52449e-13
4.18223e-13
-3.53554e-14
-1.03067e-12
-1.97397e-13
-2.05971e-14
-3.77854e-13
-3.23467e-12
-5.13967e-12
-3.39781e-12
-1.25348e-12
-2.06247e-13
4.10072e-14
6.0476e-14
6.11695e-14
-1.10451e-14
-6.43444e-13
-8.32392e-13
3.36652e-13
4.61727e-14
2.15693e-14
1.72605e-14
1.01417e-13
-1.11568e-12
-4.28287e-12
-8.58715e-13
5.30153e-14
1.11066e-12
1.60636e-12
4.39859e-13
-1.74716e-13
-2.17387e-14
3.46207e-15
9.62852e-13
5.42592e-12
1.01128e-11
1.45255e-11
3.03854e-11
5.48056e-11
7.88211e-11
7.90788e-11
3.34377e-11
7.39734e-13
-2.30055e-11
-5.6458e-11
-1.15339e-12
-2.45894e-11
-1.02459e-10
-1.07981e-10
-4.73104e-11
-8.75852e-12
1.25598e-12
1.74162e-12
1.1864e-12
6.21824e-13
3.57581e-13
2.62437e-13
-8.62166e-13
3.18933e-12
1.76006e-13
6.67422e-12
2.8397e-12
-1.86361e-13
-9.06814e-12
-2.02911e-11
-4.13149e-12
8.09612e-14
4.50918e-12
3.70062e-12
4.09772e-13
-1.4608e-14
-9.33697e-13
-1.19688e-12
2.11379e-15
1.19247e-12
7.64128e-12
1.56365e-11
2.72896e-11
4.65001e-11
7.22131e-11
8.24576e-11
4.01777e-11
1.28478e-12
-1.81837e-11
-1.91328e-10
-3.81452e-11
-2.81265e-11
-1.54296e-10
-1.61671e-10
-5.64619e-11
-4.98571e-12
1.37931e-13
1.16533e-12
2.66259e-12
1.99631e-12
1.0322e-12
7.83479e-14
-5.17413e-14
-6.09754e-13
2.51297e-14
1.30085e-11
1.12877e-11
-4.97195e-12
-1.94713e-11
-4.07758e-11
-9.23129e-12
2.41154e-13
1.20071e-11
1.03979e-11
1.40766e-12
-9.89101e-15
-2.41937e-12
-4.37135e-12
-7.01714e-13
8.92088e-14
4.00595e-12
8.20875e-12
1.10671e-11
2.03079e-11
4.1402e-11
6.31686e-11
4.77123e-11
6.23806e-13
-3.4957e-11
-4.18279e-10
-2.19493e-10
-1.30325e-11
-1.47306e-10
-1.77942e-10
-4.8423e-11
-5.80512e-13
5.67901e-12
3.48277e-11
4.75524e-11
3.00485e-11
9.6004e-12
-3.24542e-12
-4.7557e-12
-3.11231e-13
-5.12151e-14
1.43444e-11
3.24247e-11
-1.33228e-11
-4.12728e-11
-7.3177e-11
-2.20952e-11
2.19071e-13
2.47822e-11
2.60416e-11
4.00132e-12
4.47523e-13
-1.83165e-12
-8.27264e-12
-4.37031e-12
1.32265e-13
1.556e-12
4.69029e-12
7.51347e-12
1.95322e-11
4.85578e-11
8.88038e-11
1.12019e-10
2.76361e-11
-1.05796e-11
-5.36872e-10
-6.70685e-10
-2.49117e-12
-1.13927e-10
-1.77566e-10
-7.02331e-11
-6.55328e-13
1.44792e-11
8.37498e-11
1.149e-10
7.2119e-11
2.00965e-11
-1.16794e-11
-2.48886e-11
-1.05743e-11
-2.03683e-12
1.20654e-11
6.15394e-11
-1.35543e-11
-7.93298e-11
-1.35155e-10
-6.18948e-11
1.70874e-13
3.28425e-11
4.80169e-11
1.03054e-11
8.25805e-13
4.35227e-12
-1.25609e-11
-1.80036e-11
-2.96868e-13
7.46738e-13
6.20072e-14
1.75437e-12
1.53968e-11
5.86045e-11
1.31644e-10
2.00641e-10
1.10761e-10
-2.21698e-12
-2.89989e-10
-1.11592e-09
-6.70236e-11
-1.1488e-10
-4.93584e-11
-8.26761e-11
-3.3221e-12
1.14349e-11
1.00307e-10
1.49981e-10
8.90531e-11
2.03316e-11
-9.32264e-12
-3.17956e-11
-3.47382e-11
-1.29865e-11
8.30251e-12
8.05772e-11
1.85175e-11
-9.21465e-11
-2.33923e-10
-1.43133e-10
-1.12243e-13
3.17972e-11
7.753e-11
2.56172e-11
1.65614e-13
1.36675e-11
-1.5101e-12
-3.5438e-11
-6.54334e-12
9.22875e-12
3.87461e-12
1.97541e-13
7.23755e-12
5.91568e-11
1.99283e-10
3.43502e-10
2.11136e-10
-1.46161e-11
-6.74719e-11
-1.08266e-09
-1.96389e-10
-1.58065e-10
2.11985e-10
3.75468e-11
-1.14619e-12
5.97743e-12
6.8944e-11
9.57869e-11
3.83606e-11
2.07707e-12
-1.94614e-13
-5.0951e-12
-3.337e-11
-3.89359e-11
-5.46746e-12
8.33095e-11
7.0687e-11
-5.16339e-11
-3.03381e-10
-2.64599e-10
-8.31185e-12
1.70085e-11
9.26681e-11
5.10958e-11
5.85242e-12
3.37196e-12
2.13053e-11
-1.45654e-11
-7.45261e-12
3.23907e-11
2.13519e-11
6.0649e-12
2.10915e-13
3.72449e-11
2.49165e-10
5.13296e-10
3.21838e-10
-3.13924e-11
-2.89856e-12
-5.90282e-10
-1.74587e-10
-1.91629e-10
3.2109e-10
1.72841e-10
8.62362e-12
6.13992e-12
4.52261e-11
4.18906e-11
1.90132e-12
3.07665e-12
-7.1459e-11
-8.26137e-11
-1.93409e-12
-3.84558e-11
-4.05711e-11
6.79519e-11
1.03733e-10
-8.82292e-12
-2.43718e-10
-3.73956e-10
-2.99175e-11
6.58288e-12
8.56663e-11
6.50208e-11
1.24423e-11
2.83406e-12
5.43427e-12
5.48466e-11
7.44877e-11
1.20387e-10
8.94105e-11
2.87832e-11
2.70692e-12
1.97e-11
2.53249e-10
5.39943e-10
3.49344e-10
-6.59103e-11
-1.17973e-10
-1.03984e-10
-5.24891e-11
-1.40472e-10
2.17053e-10
1.33093e-10
3.11182e-12
1.93739e-11
6.55456e-11
4.26985e-11
1.35259e-12
6.67594e-12
-3.60037e-10
-7.12447e-10