/*--------------------------------*- C++ -*----------------------------------*\
| =========                 |                                                 |
| \\      /  F ield         | OpenFOAM: The Open Source CFD Toolbox           |
|  \\    /   O peration     | Version:  5.0                                   |
|   \\  /    A nd           | Web:      www.OpenFOAM.org                      |
|    \\/     M anipulation  |                                                 |
\*---------------------------------------------------------------------------*/
FoamFile
{
    version     2.0;
    format      ascii;
    class       volScalarField;
    location    "50.4676134421789371";
    object      WWW;
}
// * * * * * * * * * * * * * * * * * * * * * * * * * * * * * * * * * * * * * //

dimensions      [0 3 -3 0 0 0 0];

internalField   nonuniform List<scalar> 
60000
(
-7.47258e-11
-5.24017e-11
-1.59624e-11
-1.42671e-13
3.9466e-12
2.40756e-11
3.073e-11
1.01941e-11
1.22055e-14
-6.55596e-12
-2.61874e-11
-2.07765e-11
-5.97122e-12
-5.31857e-13
4.35271e-14
7.85109e-12
5.12559e-11
1.23231e-10
2.45287e-10
2.69963e-10
8.57259e-11
5.8746e-13
-1.66535e-11
-9.565e-11
-1.06003e-10
-6.72594e-11
-5.41064e-11
-7.01995e-11
-5.78993e-11
-5.06978e-12
5.26955e-12
9.21168e-11
2.16879e-10
3.48631e-10
4.74916e-10
2.83024e-10
1.36214e-11
-6.25307e-12
-5.60989e-11
-7.88269e-11
-5.40836e-10
-1.44858e-10
-6.1459e-12
2.15994e-12
1.00818e-10
3.57999e-10
2.31447e-10
6.71203e-12
-7.04497e-11
-6.63101e-10
-9.53025e-10
-4.596e-10
-5.07379e-11
1.11687e-13
7.45424e-11
4.36343e-10
9.15314e-10
1.10136e-09
1.28389e-09
8.75124e-10
4.40118e-11
-2.01026e-10
-1.96085e-09
-2.28347e-09
-9.5177e-10
-1.99065e-10
-4.33928e-11
-3.80336e-11
-5.07422e-11
-6.95167e-12
2.16816e-11
4.73301e-10
1.18516e-09
1.5916e-09
1.7431e-09
1.00699e-09
4.23188e-11
-1.04939e-10
-8.22017e-10
-9.45234e-10
-7.66152e-10
-2.06276e-10
-3.30067e-12
4.79393e-12
5.9413e-11
3.40895e-10
4.41638e-10
3.87541e-11
-6.6711e-11
-1.19509e-09
-1.91535e-09
-1.02756e-09
-1.56547e-10
-2.00854e-15
8.16421e-11
4.68563e-10
9.19849e-10
9.76219e-10
1.0003e-09
5.67052e-10
2.05278e-12
-1.38381e-09
-8.34679e-09
-7.15171e-09
-1.91146e-09
-1.30309e-10
-4.61021e-14
1.16559e-12
1.22459e-13
1.31925e-14
7.25767e-12
1.38681e-10
5.20108e-10
8.41289e-10
9.30565e-10
6.21287e-10
1.00133e-10
-4.66321e-12
-4.16444e-10
-1.00804e-09
-1.20598e-09
-4.73938e-10
-1.43665e-11
6.46511e-12
4.61186e-11
1.96405e-10
5.63618e-10
2.02737e-10
-4.27939e-12
-1.10032e-09
-2.79417e-09
-1.68604e-09
-2.73902e-10
-1.12355e-14
1.29817e-10
6.37507e-10
1.07748e-09
1.02251e-09
1.00332e-09
6.02564e-10
9.96923e-13
-2.52231e-09
-1.69044e-08
-1.37616e-08
-2.84747e-09
-6.06113e-11
1.96775e-11
1.24646e-10
8.81423e-11
3.17122e-11
2.64886e-11
8.27423e-11
2.63792e-10
5.63222e-10
8.20963e-10
6.45145e-10
1.66414e-10
1.82043e-13
-1.1878e-10
-8.1239e-10
-1.61052e-09
-1.62281e-09
-2.0786e-10
1.09522e-13
3.58549e-11
1.17499e-10
5.27021e-10
6.21036e-10
1.57096e-11
-4.97803e-10
-4.00984e-09
-4.04255e-09
-1.03675e-09
-8.3645e-12
1.57916e-10
1.10773e-09
1.75433e-09
1.35485e-09
1.15798e-09
1.05552e-09
3.97713e-11
-2.22488e-09
-2.46645e-08
-2.40035e-08
-5.22201e-09
-9.88392e-11
4.57025e-11
2.66816e-10
2.3653e-10
1.14379e-10
5.55663e-11
5.61064e-11
1.11109e-10
3.00349e-10
8.43106e-10
1.26448e-09
6.12519e-10
5.55687e-11
-2.1808e-12
-3.30427e-10
-5.45678e-10
-2.1784e-09
-1.13651e-09
-2.78239e-11
6.90474e-12
4.96482e-11
2.71499e-10
8.28966e-10
2.86086e-10
-2.04815e-11
-2.78297e-09
-6.5923e-09
-3.27871e-09
-1.7596e-10
1.07654e-10
1.90385e-09
3.07611e-09
1.5032e-09
6.28499e-10
8.6455e-10
2.25732e-10
-1.09784e-09
-2.71975e-08
-3.44405e-08
-8.22149e-09
-1.71989e-10
3.33586e-11
1.9718e-10
1.68943e-10
9.39485e-11
4.73818e-11
2.66518e-11
2.28862e-11
5.25367e-11
2.84118e-10
1.08249e-09
1.2833e-09
4.39743e-10
3.80494e-11
-3.88359e-12
-1.12212e-11
-8.33946e-10
-1.65676e-09
-3.21081e-10
-5.7465e-13
7.27857e-12
7.36992e-11
5.11083e-10
6.36707e-10
7.55524e-12
-8.32453e-10
-6.1752e-09
-5.34319e-09
-5.75759e-10
9.90319e-11
3.55279e-09
5.81384e-09
1.66219e-09
1.26165e-10
1.42039e-10
2.48634e-10
-3.119e-10
-2.24064e-08
-3.65534e-08
-8.43844e-09
-1.73897e-10
1.06909e-11
8.76804e-11
9.3859e-11
5.60127e-11
1.99636e-11
4.5872e-12
1.00673e-12
1.92227e-12
3.78271e-11
3.95377e-10
1.13494e-09
9.62579e-10
3.85538e-10
5.86099e-11
5.62432e-11
-6.79247e-11
-8.25665e-10
-4.93777e-10
-3.18394e-11
-3.84499e-15
5.34568e-12
1.51972e-10
5.70698e-10
9.60744e-11
-1.24852e-10
-3.19921e-09
-4.1908e-09
-4.46409e-10
2.70506e-10
6.16892e-09
7.48816e-09
1.48895e-09
7.50363e-12
-9.53351e-14
2.79479e-11
-8.36231e-11
-1.38223e-08
-2.66957e-08
-5.75151e-09
-1.65236e-10
3.95629e-14
1.80998e-11
5.0098e-11
4.17737e-11
7.89187e-12
5.10544e-17
-2.35153e-12
-2.04446e-12
3.1444e-13
8.05411e-11
5.1535e-10
8.91541e-10
8.25286e-10
5.71059e-10
7.32683e-10
2.04443e-12
-2.5991e-10
-4.06914e-10
-5.83983e-11
-7.83337e-13
1.49285e-13
2.52781e-11
2.47435e-10
1.38407e-10
-1.69604e-11
-1.16547e-09
-1.40534e-09
-2.03861e-11
1.02765e-09
6.36673e-09
4.91745e-09
7.97209e-10
2.70044e-13
-5.97231e-11
-3.339e-12
-6.17861e-11
-5.87816e-09
-1.24946e-08
-2.79668e-09
-2.18098e-10
-1.08711e-11
4.45826e-13
2.76169e-11
3.01259e-11
1.27372e-12
-5.53826e-12
-5.96899e-11
-6.52887e-11
-5.65196e-12
9.19782e-12
2.04656e-10
5.25461e-10
8.61682e-10
1.32067e-09
1.97983e-09
2.12174e-10
-5.09908e-11
-4.56697e-10
-1.5644e-10
-2.00123e-12
5.19419e-12
4.28318e-11
1.36799e-10
8.93624e-11
-6.08622e-12
-6.43256e-10
-2.73501e-10
3.95752e-11
2.20829e-09
4.13368e-09
1.9017e-09
2.69555e-10
1.77895e-13
-6.21935e-11
-6.44191e-11
-6.94273e-11
-1.31798e-09
-2.89444e-09
-1.18596e-09
-4.67287e-10
-1.33572e-10
-5.76727e-13
1.90569e-11
2.20978e-11
-1.20239e-14
-7.83546e-11
-3.47018e-10
-3.4328e-10
-6.7347e-11
1.31185e-13
1.08352e-10
3.71338e-10
7.02642e-10
1.68134e-09
2.93784e-09
7.96173e-10
-4.94606e-12
-6.8119e-10
-6.04988e-10
-3.72014e-11
1.85947e-11
2.77861e-10
4.00146e-10
1.17131e-10
-3.586e-12
-5.78404e-10
-1.99942e-10
1.52909e-10
2.59799e-09
2.83614e-09
9.35782e-10
8.08341e-11
7.02791e-14
-6.51667e-12
-2.04719e-11
-1.82125e-11
-7.39567e-11
-2.25429e-10
-5.31957e-10
-8.8558e-10
-3.93683e-10
-5.89825e-12
1.928e-11
2.13688e-11
-2.96143e-12
-3.63919e-10
-1.27549e-09
-1.21067e-09
-2.99806e-10
-8.5903e-13
6.86167e-11
3.27211e-10
6.28191e-10
1.68302e-09
3.19516e-09
1.31031e-09
-1.00867e-14
-7.20219e-10
-1.00158e-09
-1.56981e-10
1.83371e-12
3.42575e-10
7.98434e-10
2.87194e-10
-2.19341e-13
-5.78039e-10
-4.41548e-10
2.10296e-11
1.82768e-09
2.60679e-09
5.65367e-10
1.70108e-12
-7.19772e-13
3.62114e-12
1.69595e-11
5.84448e-12
1.16734e-12
-3.19811e-12
-3.28425e-10
-1.16665e-09
-5.40687e-10
-6.26468e-12
3.31462e-11
3.95055e-11
-2.91847e-12
-6.52575e-10
-2.94607e-09
-3.42577e-09
-1.14727e-09
-3.20585e-11
3.04859e-11
2.83889e-10
5.97092e-10
1.57839e-09
2.78711e-09
1.52989e-09
6.08394e-12
-2.80359e-10
-5.30013e-10
-1.48438e-10
-1.28831e-12
6.31369e-11
5.24085e-10
4.60611e-10
9.91161e-13
-5.93745e-10
-1.12658e-09
-1.35808e-12
1.04015e-09
2.05444e-09
1.16586e-10
-6.71224e-11
-4.5062e-11
1.47335e-10
1.31118e-09
7.42546e-10
1.21966e-10
-2.95052e-14
-3.67238e-10
-1.14164e-09
-3.77131e-10
-2.38379e-13
8.8424e-11
1.18824e-10
7.80589e-14
-4.11306e-10
-3.7862e-09
-7.28601e-09
-4.03224e-09
-3.66094e-10
2.91376e-12
2.3427e-10
5.33278e-10
1.28983e-09
1.99283e-09
1.54498e-09
1.31148e-10
-2.2642e-12
-5.27027e-11
-6.90017e-11
-5.11568e-11
-8.45545e-13
7.45882e-11
5.13325e-10
1.38078e-10
-9.9549e-11
-1.47269e-09
-1.42061e-10
2.8438e-10
7.19663e-10
-4.24163e-13
-9.15313e-10
-2.5587e-10
3.74722e-10
6.22937e-09
5.32817e-09
6.98533e-10
-6.79618e-14
-3.82558e-10
-7.3898e-10
-1.61441e-10
8.88115e-14
1.30613e-10
2.61417e-10
5.86565e-11
-1.86254e-11
-1.926e-09
-9.38199e-09
-1.08241e-08
-2.7826e-09
-2.04098e-11
1.33011e-10
5.52217e-10
1.04042e-09
1.20019e-09
1.04156e-09
3.77726e-10
4.15176e-11
4.62651e-14
-1.55092e-11
-1.18989e-10
-1.23237e-10
-1.24625e-12
1.34745e-10
4.16038e-10
3.77929e-12
-3.24685e-10
-2.55476e-10
8.66724e-13
3.89245e-12
-1.96385e-10
-1.10944e-09
-2.58224e-10
1.60677e-10
7.14073e-09
1.24654e-08
3.19211e-09
1.5727e-11
-2.30736e-10
-6.77886e-10
-2.45319e-10
-1.49631e-12
6.26631e-11
4.14044e-10
5.56803e-10
9.68953e-11
-1.22153e-10
-5.57737e-09
-1.66698e-08
-1.09605e-08
-1.13963e-09
2.6921e-12
5.01168e-10
1.00062e-09
9.14272e-10
3.46725e-10
8.04997e-11
1.31659e-11
4.04018e-12
6.38655e-13
-1.54271e-12
-4.38972e-11
-3.24193e-11
3.3068e-12
2.64109e-10
1.32263e-10
-4.49646e-12
-1.68671e-10
-7.70643e-11
-4.19482e-11
-8.61031e-11
-1.04486e-10
-3.65121e-11
1.28072e-11
2.26484e-09
8.96346e-09
5.01878e-09
1.45977e-10
-1.89832e-10
-1.06196e-09
-5.26529e-10
-1.70393e-11
3.56368e-11
5.3073e-10
1.3173e-09
1.04826e-09
2.56561e-11
-1.18082e-09
-1.31058e-08
-1.9803e-08
-6.85143e-09
-1.65784e-10
1.70021e-10
1.08061e-09
8.86557e-10
1.44195e-10
4.32558e-13
-7.542e-13
2.03446e-13
2.68173e-11
3.65133e-11
7.36852e-13
-3.24053e-12
-1.01145e-14
5.82827e-11
1.24519e-10
9.76402e-14
-1.07035e-10
-1.65468e-10
-1.64071e-11
5.85135e-17
-2.07461e-13
-9.16802e-12
2.2388e-13
6.88871e-10
4.04863e-09
3.05682e-09
1.20204e-10
-1.5321e-10
-9.23684e-10
-4.37355e-10
-1.66763e-11
1.23065e-11
2.61228e-10
9.49659e-10
1.59304e-09
6.44813e-10
-1.08674e-11
-5.08244e-09
-1.83379e-08
-1.35438e-08
-1.87583e-09
5.0903e-13
7.12296e-10
3.23014e-10
6.85627e-11
1.21602e-19
-4.42013e-12
-3.07268e-17
2.94252e-11
1.23233e-10
5.87951e-11
7.38195e-13
-8.0878e-14
3.19708e-12
3.25048e-11
7.29181e-13
-2.17464e-11
-1.5377e-11
1.25753e-12
8.15983e-12
-4.64305e-12
-1.26123e-10
-2.40371e-11
1.1134e-10
1.82992e-09
1.85329e-09
1.17222e-10
-4.9544e-11
-3.9362e-10
-1.57103e-10
-2.89666e-12
1.96779e-12
2.72949e-11
2.47018e-10
1.33667e-09
2.1414e-09
2.9987e-10
-4.07981e-10
-8.78105e-09
-1.33352e-08
-4.38141e-09
-1.02685e-10
7.66057e-11
-4.74257e-14
-1.38044e-11
-8.17846e-11
-6.00669e-11
-1.53298e-12
3.48387e-11
4.65675e-10
8.27331e-10
2.80768e-10
3.55509e-12
-1.51034e-12
-7.13761e-15
3.09829e-12
1.01378e-11
3.66343e-11
3.97652e-11
-7.54149e-15
-1.67719e-10
-5.5768e-10
-2.68041e-10
-7.36587e-13
1.39199e-10
4.284e-10
1.41517e-10
7.9822e-12
1.59897e-12
2.33957e-12
-1.43191e-14
-3.7075e-11
-3.00801e-11
3.70568e-11
2.06269e-09
6.06125e-09
3.49235e-09
3.43269e-11
-1.40702e-09
-6.83148e-09
-4.48973e-09
-6.12299e-10
-7.02839e-12
-3.16914e-10
-7.06091e-10
-9.51669e-10
-4.00992e-10
-7.83898e-12
8.3768e-11
9.18089e-10
1.99136e-09
1.33694e-09
8.41005e-11
-2.81828e-11
-1.85107e-10
-2.29582e-11
2.5245e-12
3.75378e-11
1.34386e-11
-1.17206e-13
-3.17971e-11
-9.83464e-11
-1.14378e-10
-5.71711e-11
-3.37312e-12
1.92287e-12
2.00711e-11
8.97564e-12
-1.49018e-13
-7.74229e-11
-3.98675e-10
-3.66025e-10
-4.64914e-12
5.43944e-10
6.42743e-09
1.38138e-08
1.01852e-08
1.58617e-09
-6.62495e-12
-1.68726e-09
-2.83799e-09
-1.25167e-09
-3.60398e-10
-4.71115e-10
-6.07965e-10
-6.53246e-10
-2.26348e-10
-3.81199e-12
1.91163e-11
2.0643e-10
6.22104e-10
8.79748e-10
2.72169e-10
-8.06027e-13
-4.98412e-10
-1.07558e-09
-5.94893e-10
-1.27981e-10
-6.39502e-12
3.776e-14
2.51876e-12
3.4617e-12
1.22967e-12
2.09737e-15
-4.34678e-13
-6.22638e-13
-1.78009e-14
-5.97022e-15
-2.04227e-12
-3.36719e-11
-1.17994e-10
-8.85121e-11
-1.4628e-12
1.2907e-10
2.03329e-09
6.80635e-09
8.70663e-09
3.51182e-09
6.38896e-11
-3.74811e-10
-2.12079e-09
-1.87799e-09
-8.01415e-10
-3.94075e-10
-1.66705e-10
-8.35073e-11
-2.93395e-11
-4.24095e-12
-3.24772e-14
2.21969e-12
4.57582e-11
1.5008e-10
9.85944e-11
1.68487e-13
-1.82777e-10
-1.23593e-09
-1.82457e-09
-8.99386e-10
-8.01072e-11
2.73061e-12
1.42438e-10
2.4228e-10
1.38874e-10
4.54937e-11
1.74967e-11
1.46531e-11
2.25625e-11
2.50516e-11
8.4561e-12
1.168e-14
-7.16395e-12
-4.45536e-11
-3.83479e-11
-2.04501e-13
7.47158e-11
7.70132e-10
1.83809e-09
1.70622e-09
3.87813e-10
-1.14765e-14
-3.42875e-10
-1.0481e-09
-8.83406e-10
-3.0903e-12
2.72955e-13
3.80107e-12
2.4916e-13
-5.79102e-12
-6.19648e-11
-5.24453e-11
-5.75339e-13
1.18308e-11
1.69151e-11
-3.41123e-13
-2.06996e-10
-9.63565e-10
-1.07499e-09
-2.8711e-10
-2.05747e-13
1.34675e-10
5.61722e-10
5.28992e-10
2.23121e-10
9.44322e-11
1.03409e-10
2.41056e-10
4.53607e-10
4.75962e-10
1.53789e-10
9.13118e-17
-2.69937e-10
-1.28389e-09
-1.26572e-09
-2.60424e-10
6.78185e-14
2.32636e-10
5.21416e-10
2.61674e-10
2.58766e-11
-5.21522e-13
-4.92632e-11
-9.92878e-11
-4.83299e-11
1.21211e-15
4.2801e-12
1.0709e-11
1.15267e-12
-5.59195e-12
-1.2688e-10
-2.4799e-10
-4.90272e-11
3.65006e-12
1.14035e-10
2.07537e-11
-4.2884e-11
-8.6056e-10
-1.29873e-09
-3.50871e-10
-5.21133e-13
7.72289e-11
2.61737e-10
2.40468e-10
1.66587e-10
1.70334e-10
2.55014e-10
3.67629e-10
3.83806e-10
1.90995e-10
9.89358e-12
-2.91419e-11
-5.79346e-10
-1.65738e-09
-1.73353e-09
-5.29073e-10
-4.37573e-13
3.37719e-10
1.24252e-09
6.94922e-10
6.18722e-11
-1.97913e-14
-1.18418e-11
-1.37835e-11
-2.89877e-12
-2.62309e-14
8.02386e-11
4.01827e-10
3.59138e-10
2.42358e-11
-4.37046e-11
-5.76411e-10
-5.51128e-10
-2.72075e-11
5.24623e-11
4.10718e-10
2.02907e-10
3.48747e-13
-1.01663e-10
-4.69978e-10
-5.2e-10
-2.38581e-10
-4.79493e-11
-1.77757e-12
8.16435e-13
2.83937e-11
1.47244e-10
3.71665e-10
5.59446e-10
4.30175e-10
9.69788e-11
-1.09474e-14
-1.90783e-10
-1.17812e-09
-2.183e-09
-1.55982e-09
-2.23532e-10
8.5144e-12
7.61292e-10
1.50364e-09
5.81179e-10
1.44015e-11
-2.55851e-11
-1.58603e-10
-7.4347e-11
-2.12281e-12
-2.59499e-12
-6.93137e-15
6.86007e-13
1.50054e-12
2.18899e-12
2.43772e-12
2.86819e-14
-1.92868e-12
-1.05115e-11
-1.48258e-11
-1.63508e-11
-1.80316e-11
-1.77284e-11
-1.552e-11
-1.7554e-11
-2.00277e-11
-2.38959e-12
2.24094e-11
4.22522e-10
5.58725e-10
8.16141e-11
-9.24898e-14
-1.09476e-10
-4.35695e-10
-6.9927e-10
-6.63423e-10
-4.14449e-10
-1.30968e-10
-6.45775e-12
2.2891e-12
4.72852e-11
9.37182e-11
6.95548e-11
3.1406e-11
2.13774e-11
1.42941e-11
5.1398e-12
1.76123e-12
4.77073e-16
-8.15645e-11
-2.77622e-11
-1.02399e-12
6.40417e-17
1.77725e-14
8.16587e-13
1.05426e-11
3.82867e-12
-3.35185e-12
-1.18912e-10
-2.81487e-10
-2.59487e-10
-1.49931e-10
-6.5533e-11
-2.95518e-11
-3.82894e-11
-9.70336e-11
-4.9222e-11
2.25444e-11
2.0954e-09
4.76348e-09
7.8365e-10
-4.43191e-11
-2.29238e-09
-4.15331e-09
-3.21036e-09
-1.70782e-09
-7.8081e-10
-2.44572e-10
-1.4856e-11
4.63529e-12
1.26959e-10
3.35962e-10
3.4837e-10
1.53142e-10
5.74159e-11
3.73787e-11
3.60705e-12
-1.59962e-12
-4.2452e-11
-2.22854e-10
-6.1339e-11
-3.12232e-12
-7.44285e-13
-2.64297e-12
-6.66025e-13
2.05315e-12
2.41279e-11
1.71296e-12
-3.79647e-11
-3.41043e-10
-3.69607e-10
-1.26141e-10
-1.12385e-11
-1.47359e-16
1.10345e-14
-7.48098e-12
-6.85766e-11
-1.72772e-12
6.27593e-10
5.11305e-09
2.04689e-09
-3.04116e-11
-5.01655e-09
-7.22993e-09
-2.91074e-09
-5.00195e-10
-4.26776e-11
-1.02645e-12
6.59277e-13
2.47653e-11
1.09641e-10
2.19947e-10
2.77686e-10
1.78122e-10
5.28449e-11
2.26321e-11
5.88244e-12
-4.47598e-12
-1.40788e-10
-3.74431e-10
-1.05957e-10
-1.70478e-12
-2.3452e-14
-2.18876e-12
-2.07823e-12
4.31565e-13
5.81226e-11
6.08339e-11
-4.72823e-13
-2.41882e-10
-3.95221e-10
-7.94113e-11
2.05857e-15
5.51008e-11
1.10177e-10
6.96522e-12
-2.50334e-11
-6.6609e-11
5.66731e-11
4.39115e-09
4.40872e-09
-1.66e-12
-8.97564e-09
-1.38712e-08
-3.83672e-09
-1.77551e-10
9.73064e-13
5.98744e-11
1.26642e-10
2.01442e-10
2.94499e-10
3.71647e-10
4.42699e-10
3.90297e-10
1.50609e-10
3.99914e-11
1.8869e-11
-4.00117e-16
-1.32624e-10
-5.84791e-10
-2.6899e-10
-4.92941e-12
1.15943e-14
-9.99924e-13
-5.02875e-12
-8.03771e-15
4.81563e-11
2.73677e-10
2.75193e-11
-7.88802e-11
-4.96666e-10
-1.35808e-10
8.21467e-13
2.88385e-10
6.17567e-10
1.23556e-10
-9.08403e-12
-3.57387e-10
-2.17411e-11
1.90075e-09
7.86791e-09
3.96046e-11
-1.14776e-08
-2.61388e-08
-7.57298e-09
-2.77674e-10
8.72374e-12
1.83694e-10
2.94935e-10
3.36702e-10
3.65598e-10
3.83471e-10
4.90032e-10
7.21817e-10
5.75137e-10
1.89137e-10
7.37815e-11
1.12519e-11
-4.96482e-11
-5.67832e-10
-6.34952e-10
-3.06184e-11
3.06905e-14
-1.45544e-13
-8.53584e-12
-5.07591e-12
1.35973e-12
2.60003e-10
3.95423e-10
4.07189e-13
-1.88001e-10
-1.32667e-10
3.48437e-12
6.82086e-10
1.44616e-09
3.33179e-10
-1.84632e-12
-5.54809e-10
-5.63397e-10
1.24482e-10
6.87072e-09
4.51181e-10
-1.05706e-08
-3.78358e-08
-1.24722e-08
-5.36532e-10
1.92573e-12
1.13146e-10
1.89331e-10
2.02786e-10
1.79137e-10
1.40946e-10
1.67756e-10
4.34008e-10
8.81878e-10
6.26153e-10
2.79921e-10
1.31689e-10
-7.22205e-14
-1.6744e-10
-1.05475e-09
-1.264e-10
4.54461e-16
1.48045e-14
-4.4213e-12
-2.03665e-11
-9.05744e-12
1.24968e-11
5.89407e-10
3.15731e-10
1.85175e-16
-1.13721e-11
2.61014e-11
9.87316e-10
1.54531e-09
1.99684e-10
-8.41759e-12
-5.00185e-10
-9.89763e-10
-2.49446e-12
2.83503e-09
6.73607e-10
-8.12385e-09
-3.7919e-08
-1.18659e-08
-3.82889e-10
2.06807e-12
4.66721e-11
4.23244e-11
2.19108e-11
4.94203e-12
1.97095e-13
4.13198e-13
4.19337e-11
4.99663e-10
1.03451e-09
7.67499e-10
5.46355e-10
7.00044e-11
-1.27171e-14
-7.7004e-10
-3.3545e-10
-8.3099e-14
1.97166e-12
-8.1924e-14
-2.61999e-11
-1.19173e-10
-6.16082e-11
2.71852e-11
8.35264e-10
4.53969e-10
7.52544e-11
2.40814e-10
1.01925e-09
6.54618e-10
1.5227e-11
-5.72693e-11
-3.62601e-10
-7.41377e-10
-1.37149e-10
4.42437e-10
2.80779e-10
-5.40575e-09
-2.50804e-08
-6.24227e-09
-8.03492e-11
1.49234e-11
4.72021e-11
1.99939e-11
5.79167e-13
-9.04155e-12
-1.40294e-10
-2.37068e-10
-2.98694e-11
3.76507e-11
7.51855e-10
1.28866e-09
1.37403e-09
7.20017e-10
2.12683e-10
-1.13179e-10
-2.73168e-10
-1.43351e-13
1.51607e-11
1.23047e-12
-7.57945e-12
-1.99101e-10
-7.10004e-10
-2.33821e-10
6.22894e-11
1.64998e-09
1.84338e-09
1.31028e-09
8.61999e-10
1.527e-10
-3.23359e-13
-9.28265e-11
-1.62388e-10
-3.88527e-10
-4.04011e-10
6.64049e-13
1.37597e-11
-2.75868e-09
-1.00654e-08
-1.5187e-09
-5.61108e-14
5.56975e-11
5.67275e-11
1.64642e-11
3.56958e-17
-7.17696e-11
-7.37556e-10
-1.69063e-09
-9.85175e-10
-2.40999e-11
1.61689e-10
1.19089e-09
2.23122e-09
2.3028e-09
1.58607e-09
6.79723e-13
-6.8435e-11
-3.33619e-13
4.98141e-12
1.37533e-12
2.13503e-14
-1.07413e-11
-5.12387e-10
-1.9206e-09
-3.23152e-10
3.02639e-10
4.16498e-09
4.23124e-09
1.34798e-09
7.24722e-11
-7.3471e-13
-2.33103e-11
-4.08257e-11
-1.97646e-10
-6.29638e-10
-1.15024e-10
-7.33079e-12
-8.52355e-10
-1.54012e-09
-3.22938e-11
2.42153e-11
5.82457e-11
4.04409e-11
1.4447e-11
-2.25007e-14
-1.59218e-10
-1.48538e-09
-3.43232e-09
-2.81881e-09
-4.94073e-10
6.49022e-13
5.23194e-10
2.19331e-09
4.07535e-09
3.9887e-09
2.47157e-10
-5.50096e-12
-1.24349e-11
-1.23487e-12
-5.96389e-14
1.22098e-12
4.74008e-12
-1.28481e-11
-1.27483e-09
-3.11612e-09
-1.20696e-10
1.29656e-09
6.60106e-09
3.95359e-09
6.92744e-10
2.83607e-11
-5.50012e-13
-2.90109e-11
-1.29982e-10
-5.3225e-10
-5.10264e-10
-1.11842e-10
-5.92333e-11
-1.25256e-13
3.55536e-11
1.92594e-11
6.25096e-12
1.54935e-11
1.43502e-11
-1.39577e-13
-2.62906e-10
-2.3275e-09
-5.09871e-09
-4.12703e-09
-1.03322e-09
-9.19495e-12
1.12819e-10
1.19931e-09
4.27608e-09
5.30565e-09
1.07588e-09
6.40007e-14
-4.00212e-11
-2.95463e-11
-6.31867e-12
3.15816e-13
2.59666e-11
1.67592e-12
-3.02922e-10
-3.73348e-09
-2.56808e-09
2.82485e-12
5.67567e-09
1.17024e-08
4.5334e-09
3.17599e-10
-2.47039e-12
-1.11571e-10
-8.06194e-11
-1.47239e-10
-3.88399e-10
-9.95272e-11
6.2207e-12
2.54154e-10
5.78569e-11
-7.04114e-16
5.11377e-15
1.6315e-11
2.57229e-11
-1.24475e-13
-3.79646e-10
-3.37279e-09
-7.77548e-09
-6.10284e-09
-1.48103e-09
-3.4425e-11
2.17859e-11
4.64351e-10
2.92262e-09
4.48635e-09
1.75686e-09
1.35133e-11
-2.60393e-11
-3.42732e-11
-5.01963e-12
3.56268e-13
3.35237e-11
1.57351e-11
-7.63052e-11
-2.87033e-09
-4.90763e-09
-1.22863e-10
3.48036e-09
1.77687e-08
8.53809e-09
3.4497e-10
-8.68485e-11
-4.06441e-10
-2.50817e-11
-4.80811e-16
-1.56783e-11
-7.89536e-12
4.09539e-11
1.21072e-10
8.45519e-13
-5.47803e-13
2.80273e-12
6.62251e-11
6.50285e-11
3.11201e-13
-1.86474e-10
-2.93728e-09
-1.0188e-08
-1.07259e-08
-3.12866e-09
-1.14472e-10
5.64361e-12
2.12573e-10
1.65137e-09
2.95885e-09
1.68743e-09
6.06526e-11
-2.41434e-12
-4.59102e-12
-2.3098e-13
6.95643e-13
2.81032e-11
3.83207e-11
-3.05445e-12
-1.40082e-09
-4.93419e-09
-6.2062e-10
1.41468e-09
1.45424e-08
7.2495e-09
6.8492e-11
-5.7983e-10
-8.338e-10
-1.34521e-12
2.03754e-10
1.06764e-10
5.7046e-12
1.0372e-11
9.11582e-12
1.43375e-12
2.71044e-12
9.33888e-12
2.15955e-11
3.75024e-11
3.44209e-11
2.154e-14
-5.11795e-10
-7.10803e-09
-1.60034e-08
-8.46133e-09
-7.64873e-10
2.91371e-15
1.42336e-10
1.00644e-09
1.70935e-09
1.40573e-09
2.40468e-10
1.04924e-11
1.31765e-13
-3.68826e-17
1.21241e-15
2.89753e-12
1.79788e-11
3.30888e-13
-2.72514e-10
-2.58688e-09
-8.37834e-10
3.04262e-10
6.56555e-09
2.79598e-09
1.45843e-15
-9.66384e-10
-6.65822e-10
5.57912e-13
8.92761e-10
1.2749e-09
3.45263e-10
8.40203e-11
3.65943e-11
1.07247e-12
-1.79087e-11
-6.72582e-11
-4.79317e-12
3.13442e-11
5.3907e-10
8.61986e-10
2.09102e-11
-1.62786e-09
-1.52613e-08
-1.77006e-08
-4.00623e-09
-4.40876e-11
7.77656e-11
6.62947e-10
8.31736e-10
6.59563e-10
1.9601e-10
2.09906e-11
3.12985e-12
7.51513e-12
1.56559e-11
1.05708e-11
3.88885e-12
5.99861e-14
-4.2927e-11
-7.35333e-10
-5.22406e-10
7.48616e-12
1.17527e-09
5.26797e-10
-2.37362e-14
-1.98203e-10
-1.11572e-10
5.84111e-12
8.2202e-10
1.97938e-09
1.06266e-09
1.50208e-10
-2.37612e-13
-3.09469e-10
-9.02603e-10
-3.99002e-10
-6.00509e-12
1.03118e-10
1.33721e-09
3.43441e-09
1.67428e-09
-7.56279e-12
-7.75399e-09
-2.29974e-08
-1.12841e-08
-7.3518e-10
1.01414e-11
4.46283e-10
3.11834e-10
8.26346e-11
1.00963e-12
-1.34547e-13
2.95624e-12
1.27561e-10
3.96628e-10
3.1232e-10
5.33389e-11
4.89509e-15
-3.7068e-11
-3.19203e-10
-3.49239e-10
-1.70035e-12
2.74528e-10
6.47769e-10
9.35729e-11
-1.62821e-12
-3.46308e-11
6.65037e-15
3.3224e-10
1.53477e-09
1.14534e-09
7.3909e-11
-6.52682e-11
-9.37454e-10
-1.14305e-09
-3.41655e-10
-5.94227e-12
3.16197e-11
5.44834e-10
2.5242e-09
3.88023e-09
3.94118e-10
-1.21127e-09
-1.66535e-08
-1.78802e-08
-3.30708e-09
-6.74531e-12
1.749e-10
2.77133e-11
1.15135e-12
-3.89797e-12
-8.52228e-12
7.80419e-15
6.76825e-11
4.67119e-10
8.03473e-10
3.53236e-10
6.8664e-12
-3.21611e-11
-2.30307e-10
-1.72531e-10
-4.71194e-16
5.20855e-10
1.57643e-09
3.64379e-10
-7.65463e-13
-2.16695e-10
-5.79765e-11
6.2074e-11
1.26432e-09
1.41257e-09
1.46611e-10
-1.83465e-11
-5.39873e-10
-7.85043e-10
-2.52764e-10
-9.54257e-12
5.95548e-13
3.95045e-11
6.15475e-10
3.38436e-09
2.98355e-09
1.26209e-12
-4.373e-09
-1.39467e-08
-6.43884e-09
-4.2074e-10
4.47857e-13
-3.81619e-11
-1.24258e-10
-2.68198e-10
-1.44274e-10
-3.58222e-12
2.6948e-11
3.7708e-10
1.05522e-09
9.62689e-10
1.35881e-10
-2.42408e-12
-1.19488e-10
-2.91286e-11
3.05198e-11
8.5106e-10
1.10204e-09
8.53636e-11
-5.9049e-11
-7.76673e-10
-6.00049e-10
-1.0499e-11
1.47025e-10
4.82587e-10
6.77898e-11
-4.10765e-12
-6.2481e-11
-1.13988e-11
2.23485e-15
2.47639e-14
-1.2288e-14
2.39497e-12
2.17421e-10
2.26071e-09
5.01254e-09
1.14474e-09
-1.11755e-10
-4.44955e-09
-5.01071e-09
-1.25526e-09
-1.19364e-10
-8.62321e-10
-1.23959e-09
-1.2829e-09
-4.4961e-10
-8.05463e-12
4.45636e-11
4.38959e-10
1.13207e-09
1.39271e-09
4.40225e-10
3.03364e-13
-8.51491e-11
-4.87996e-11
9.54929e-13
1.25981e-10
1.54272e-10
8.1905e-12
-2.30018e-11
-2.99255e-10
-4.66737e-10
-1.57732e-10
-7.45632e-13
1.74973e-11
2.77522e-11
3.8312e-12
1.14208e-15
-2.36521e-12
-2.28597e-11
-2.33465e-11
3.00639e-14
2.17548e-10
1.57805e-09
4.01027e-09
6.0574e-09
3.33504e-09
6.6356e-11
-5.07033e-10
-2.4842e-09
-1.98977e-09
-1.00854e-09
-1.73076e-09
-1.13341e-09
-5.95812e-10
-9.89301e-11
2.0395e-15
4.77746e-11
1.42979e-10
2.81734e-10
5.82508e-10
5.08199e-10
2.36939e-11
-9.39285e-11
-7.66896e-10
-7.18254e-10
-1.3105e-10
-3.05994e-16
3.27234e-11
3.24121e-11
2.40576e-13
-1.28203e-11
-4.298e-11
-8.10146e-12
4.39497e-13
1.29254e-11
2.7057e-12
-3.04992e-12
-6.55093e-11
-8.84433e-11
-1.29707e-11
4.44307e-12
2.63497e-10
1.29442e-09
3.26834e-09
5.67454e-09
4.672e-09
6.59942e-10
-2.84928e-11
-1.75119e-09
-3.47964e-09
-2.81326e-09
-1.67083e-09
-5.64254e-10
-6.8879e-11
-1.23714e-14
6.18118e-12
3.12765e-12
2.83481e-16
-3.92101e-15
2.75269e-12
3.78643e-11
1.5141e-11
-2.32304e-11
-8.80608e-10
-2.1127e-09
-9.23787e-10
-4.22823e-12
3.10817e-10
1.23092e-09
6.95132e-10
5.25874e-11
-2.39121e-13
-5.30617e-12
-4.42055e-16
1.00622e-11
3.36613e-11
2.32241e-11
4.00072e-12
-3.41809e-14
-7.79031e-12
-5.41219e-12
1.56427e-13
3.73641e-11
1.97826e-10
8.17219e-10
2.01895e-09
1.30657e-09
3.20625e-11
-2.37173e-10
-1.92933e-09
-2.70272e-09
-5.13023e-11
-5.49431e-12
-2.62331e-16
5.70222e-14
-1.09346e-12
-4.55275e-11
-1.20404e-10
-4.63932e-11
-4.288e-13
2.90502e-13
-3.07742e-13
-8.14528e-11
-6.17022e-10
-9.93713e-10
-2.68631e-10
1.87567e-12
7.61704e-10
2.12733e-09
1.34246e-09
2.24996e-10
6.15685e-12
4.53821e-13
2.49907e-11
2.82932e-10
7.46511e-10
4.90544e-10
1.08574e-11
-1.69975e-10
-1.22229e-09
-1.10532e-09
-1.20661e-10
5.45015e-12
1.45198e-10
1.31644e-10
6.41455e-11
2.57689e-11
3.96215e-13
-1.36822e-11
-1.01212e-10
-1.24804e-10
-4.7034e-17
4.67403e-12
6.16707e-12
6.59445e-15
-2.09017e-11
-1.95836e-10
-3.58878e-10
-1.32353e-10
-1.51471e-13
3.29303e-11
1.92827e-11
-5.8138e-12
-3.52423e-10
-8.24766e-10
-3.52169e-10
-2.29031e-12
1.09959e-10
6.08268e-10
6.85041e-10
3.13517e-10
8.17528e-11
3.2983e-11
5.71896e-11
1.61514e-10
2.30507e-10
6.99834e-11
-4.76705e-13
-3.06721e-10
-1.395e-09
-1.63321e-09
-3.86168e-10
1.37632e-12
6.7145e-10
1.32391e-09
4.84001e-10
2.12896e-11
-2.9997e-12
-5.22328e-11
-6.03336e-11
-1.28241e-11
-2.00825e-11
8.18507e-12
1.43159e-10
1.13802e-10
5.59439e-13
-9.96504e-11
-5.31592e-10
-3.73927e-10
-1.55556e-11
2.60436e-11
1.85036e-10
6.95112e-11
-5.81873e-14
-1.17456e-10
-3.84757e-10
-3.72061e-10
-1.68117e-10
-3.63333e-11
-1.67833e-12
5.27106e-13
2.66943e-11
1.74666e-10
5.67741e-10
1.02757e-09
8.73034e-10
2.18567e-10
1.77316e-15
-2.8228e-10
-1.75092e-09
-2.96777e-09
-1.65818e-09
-8.11853e-11
1.51761e-10
1.89234e-09
2.5189e-09
8.85268e-10
3.24957e-11
-2.05606e-11
-2.348e-10
-2.24411e-10
-1.26447e-12
8.00772e-15
5.53566e-12
7.1313e-12
5.12137e-13
-1.61219e-13
-3.73866e-12
-7.4175e-12
-6.92011e-12
-4.28071e-12
-6.13954e-12
-1.40577e-11
-2.84338e-11
-5.33634e-11
-1.06497e-10
-2.18231e-10
-3.71222e-10
-3.7554e-10
-1.30277e-10
-6.1846e-14
9.95498e-11
1.55748e-10
4.81512e-12
-8.83516e-12
-1.09931e-10
-2.05038e-10
-1.45124e-10
-4.88224e-11
-9.1445e-12
-1.27992e-12
-3.77633e-13
-8.4653e-13
-6.29455e-12
-4.56462e-11
-1.58453e-10
-1.25688e-10
-7.01868e-12
9.45086e-14
3.94137e-14
-4.41927e-13
2.83879e-12
2.41142e-11
2.80213e-11
5.09572e-13
-7.84373e-12
-3.83816e-11
-2.89199e-11
-5.58249e-12
-1.86479e-13
-1.18886e-13
-1.10321e-11
-1.01595e-10
-2.85986e-10
-4.8932e-10
-7.47676e-10
-1.172e-09
-1.64501e-09
-1.44578e-09
-4.11311e-10
8.66822e-15
7.89097e-10
1.64196e-09
2.68896e-11
-5.61828e-10
-2.93975e-09
-3.12052e-09
-1.44873e-09
-3.64769e-10
-6.04353e-11
-9.05982e-12
-2.01401e-12
-8.75609e-13
-1.39124e-12
-1.4728e-11
-1.25542e-10
-1.50693e-10
-2.03751e-13
6.80186e-11
4.9092e-11
3.30513e-12
2.25793e-11
7.36181e-11
4.39754e-11
-6.75973e-16
-4.9963e-11
-1.02082e-10
-2.911e-11
-7.93755e-14
5.79694e-12
1.62981e-11
5.09262e-13
-1.00089e-11
-8.35831e-11
-1.52151e-10
-2.00806e-10
-3.1533e-10
-5.4164e-10
-6.27053e-10
-2.21117e-10
2.28553e-14
6.32506e-10
2.63001e-09
4.42624e-10
-3.32164e-10
-4.62958e-09
-4.62518e-09
-1.40807e-09
-1.39924e-10
-1.29341e-12
6.76277e-13
2.86245e-12
2.59968e-12
2.4383e-12
1.08355e-12
-1.74369e-13
-9.72275e-12
-1.30053e-15
1.04469e-10
2.13378e-10
4.20021e-11
3.58648e-11
9.93159e-11
6.42341e-11
-2.78538e-14
-9.64873e-11
-1.61577e-10
-2.66579e-11
1.39592e-13
2.99106e-11
6.68096e-11
1.6723e-11
-4.78411e-14
-1.49591e-11
-2.70048e-11
-2.69045e-11
-5.3385e-11
-1.58412e-10
-3.15072e-10
-2.14224e-10
-7.82499e-13
4.08639e-10
3.4147e-09
1.9472e-09
-3.90748e-11
-5.69897e-09
-6.5093e-09
-1.25546e-09
-1.14407e-11
3.46148e-11
1.79874e-10
2.1197e-10
1.48787e-10
9.78913e-11
7.21709e-11
2.48739e-11
4.86194e-13
6.08222e-13
9.5193e-11
3.42108e-10
1.15618e-10
7.07362e-11
1.3432e-10
1.13254e-10
3.73887e-17
-1.43403e-10
-2.70951e-10
-4.00449e-11
1.39561e-12
7.62104e-11
1.53392e-10
6.6168e-11
1.23887e-12
-1.75956e-12
-5.64365e-12
-7.62261e-12
-2.94825e-11
-1.36956e-10
-3.74804e-10
-5.16923e-10
-1.34603e-10
2.46942e-11
2.47377e-09
4.54101e-09
6.25001e-12
-6.14326e-09
-1.16541e-08
-2.4433e-09
-1.27359e-11
1.18833e-10
5.20083e-10
6.07943e-10
4.19011e-10
2.45215e-10
1.88242e-10
1.41373e-10
3.79994e-11
9.24192e-12
8.78677e-11
4.15886e-10
2.53873e-10
1.5415e-10
2.08371e-10
2.276e-10
1.23993e-12
-1.55771e-10
-4.43931e-10
-9.60755e-11
9.12854e-13
1.61707e-10
3.75245e-10
2.43617e-10
4.4253e-11
1.21641e-12
-3.378e-18
-3.67195e-13
-1.31319e-11
-1.29115e-10
-4.73328e-10
-8.00559e-10
-5.66592e-10
-1.75034e-11
5.73966e-10
4.92212e-09
3.3867e-10
-4.46811e-09
-1.69674e-08
-4.98135e-09
-8.00957e-11
8.88492e-11
5.99971e-10
7.42311e-10
4.5118e-10
1.8268e-10
1.02215e-10
1.29032e-10
1.2215e-10
5.68966e-11
1.03501e-10
3.99327e-10
3.82053e-10
2.39593e-10
3.50287e-10
4.23668e-10
1.87913e-11
-1.11338e-10
-6.10198e-10
-2.4596e-10
-2.58987e-13
1.35385e-10
6.0794e-10
6.08377e-10
2.31862e-10
3.83259e-11
3.86564e-12
5.89107e-14
-2.91572e-12
-1.04952e-10
-6.33185e-10
-1.21555e-09
-9.39252e-10
-2.03462e-10
3.16575e-11
2.72652e-09
6.84696e-10
-2.71338e-09
-1.6665e-08
-6.01727e-09
-1.78965e-10
2.89177e-11
3.29129e-10
3.7151e-10
1.33906e-10
9.59975e-12
7.40338e-14
3.48859e-12
6.47898e-11
1.37107e-10
1.94214e-10
4.26172e-10
4.32847e-10
2.48227e-10
4.88556e-10
7.37474e-10
9.78784e-11
-3.82692e-11
-6.31947e-10
-5.06853e-10
-4.5716e-11
6.59457e-12
3.52994e-10
8.59056e-10
6.96852e-10
2.3912e-10
4.42005e-11
5.28374e-12
8.97792e-19
-4.61829e-11
-6.36133e-10
-1.45549e-09
-1.15358e-09
-4.72764e-10
-9.85288e-13
7.32672e-10
3.40992e-10
-1.52157e-09
-1.00407e-08
-3.54486e-09
-9.8054e-11
1.51537e-11
1.49416e-10
1.07836e-10
2.61861e-12
-4.77016e-11
-3.85666e-10
-2.60959e-10
-1.67998e-12
6.76675e-11
3.33094e-10
6.11195e-10
5.05116e-10
2.32591e-10
4.70194e-10
1.10704e-09
2.58071e-10
-7.24096e-12
-5.60918e-10
-8.22608e-10
-3.01636e-10
-2.62758e-11
9.36054e-12
4.92882e-10
1.34416e-09
1.11546e-09
4.00927e-10
7.87854e-11
3.75909e-12
-1.8792e-11
-4.92889e-10
-1.08969e-09
-9.26173e-10
-7.19237e-10
-1.22881e-10
3.46481e-11
4.54351e-11
-5.85377e-10
-3.10364e-09
-8.62282e-10
-6.22033e-12
4.13276e-11
1.90656e-10
9.37185e-11
-4.42898e-15
-3.5193e-10
-2.38352e-09
-3.39693e-09