/*--------------------------------*- C++ -*----------------------------------*\
| =========                 |                                                 |
| \\      /  F ield         | OpenFOAM: The Open Source CFD Toolbox           |
|  \\    /   O peration     | Version:  5.0                                   |
|   \\  /    A nd           | Web:      www.OpenFOAM.org                      |
|    \\/     M anipulation  |                                                 |
\*---------------------------------------------------------------------------*/
FoamFile
{
    version     2.0;
    format      ascii;
    class       volScalarField;
    location    "50.4676134421789371";
    object      WWWMean;
}
// * * * * * * * * * * * * * * * * * * * * * * * * * * * * * * * * * * * * * //

dimensions      [0 3 -3 0 0 0 0];

internalField   nonuniform List<scalar> 
60000
(
-3.32391e-11
-2.24691e-11
-6.09106e-12
-5.96438e-14
2.24482e-12
1.09319e-11
1.35467e-11
4.48365e-12
4.6243e-14
-2.92044e-12
-1.05501e-11
-8.13997e-12
-2.44918e-12
-3.59973e-13
4.30821e-14
3.90827e-12
2.36331e-11
5.75511e-11
1.19659e-10
1.34907e-10
4.55945e-11
1.91766e-12
-7.48293e-12
-4.13098e-11
-4.91559e-11
-3.91178e-11
-4.2596e-11
-5.79074e-11
-4.02083e-11
-2.90276e-12
5.50437e-12
5.52604e-11
1.19009e-10
1.94549e-10
2.52479e-10
1.27961e-10
4.64478e-12
-4.58289e-12
-2.69759e-11
-3.56909e-11
-2.17985e-10
-4.96464e-11
-1.48976e-12
2.40842e-12
5.24321e-11
1.58745e-10
9.08079e-11
1.73815e-12
-4.32283e-11
-3.12813e-10
-4.05542e-10
-1.76074e-10
-1.57158e-11
1.14878e-12
4.71814e-11
2.22873e-10
4.24222e-10
4.87805e-10
5.41607e-10
3.31782e-10
1.09729e-11
-1.48795e-10
-9.51895e-10
-9.63085e-10
-3.63929e-10
-7.22073e-11
-1.82471e-11
-1.86285e-11
-2.37213e-11
-2.96973e-12
2.03373e-11
2.61395e-10
5.68186e-10
7.25111e-10
7.54352e-10
3.90289e-10
1.10403e-11
-7.75835e-11
-4.09159e-10
-4.18664e-10
-3.22839e-10
-7.73084e-11
-8.069e-13
3.03496e-12
2.84768e-11
1.56065e-10
1.8429e-10
1.26624e-11
-4.15644e-11
-5.58504e-10
-8.23193e-10
-4.15369e-10
-5.54053e-11
1.03209e-13
4.58059e-11
2.25949e-10
4.17736e-10
4.32631e-10
4.25501e-10
2.13671e-10
2.59214e-13
-8.11135e-10
-3.82558e-09
-2.92537e-09
-7.03736e-10
-3.94436e-11
3.51358e-14
9.99973e-13
1.17166e-13
3.79797e-14
4.44355e-12
6.95894e-11
2.38668e-10
3.68436e-10
3.88283e-10
2.45658e-10
3.43959e-11
-4.79452e-12
-2.0959e-10
-4.56172e-10
-5.16648e-10
-1.822e-10
-4.03451e-12
4.15272e-12
2.08836e-11
8.93043e-11
2.45581e-10
7.71048e-11
-4.88455e-12
-5.33793e-10
-1.21181e-09
-6.8764e-10
-9.98049e-11
5.90211e-14
6.83754e-11
2.97017e-10
4.8042e-10
4.52635e-10
4.36563e-10
2.33958e-10
-2.11932e-13
-1.42307e-09
-7.61594e-09
-5.55273e-09
-1.03241e-09
-1.66775e-11
1.50198e-11
5.96961e-11
3.80821e-11
1.36531e-11
1.25234e-11
4.04089e-11
1.24423e-10
2.57624e-10
3.55373e-10
2.60286e-10
6.06859e-11
3.08692e-14
-6.45882e-11
-3.80666e-10
-7.45224e-10
-6.6675e-10
-7.02971e-11
4.4384e-13
1.66758e-11
5.28056e-11
2.36454e-10
2.53978e-10
4.22433e-12
-2.70429e-10
-1.8061e-09
-1.69251e-09
-3.94744e-10
-2.0388e-12
8.78844e-11
5.14988e-10
7.69723e-10
5.89673e-10
5.17866e-10
4.37086e-10
9.92411e-12
-1.33671e-09
-1.12738e-08
-9.74993e-09
-1.91396e-09
-2.78182e-11
2.84084e-11
1.19532e-10
9.91264e-11
4.7141e-11
2.37037e-11
2.57193e-11
5.29439e-11
1.45441e-10
3.92324e-10
5.45061e-10
2.42262e-10
1.88285e-11
-2.38294e-12
-1.73894e-10
-2.80641e-10
-9.69717e-10
-4.3028e-10
-7.94087e-12
4.02802e-12
2.20138e-11
1.23654e-10
3.59493e-10
1.05983e-10
-1.86581e-11
-1.34449e-09
-2.85748e-09
-1.2976e-09
-5.51962e-11
7.06325e-11
8.93547e-10
1.31161e-09
6.11218e-10
2.76109e-10
3.876e-10
7.06954e-11
-7.70074e-10
-1.28251e-08
-1.41204e-08
-3.02699e-09
-5.0116e-11
2.02786e-11
8.52502e-11
6.8906e-11
3.79017e-11
1.92417e-11
1.11775e-11
1.0247e-11
2.59009e-11
1.39564e-10
4.92632e-10
5.36873e-10
1.71164e-10
1.29877e-11
-3.89802e-12
-9.96035e-12
-4.06856e-10
-6.80047e-10
-1.12862e-10
-1.29448e-13
3.46135e-12
3.38037e-11
2.30661e-10
2.54932e-10
1.80877e-12
-4.49871e-10
-2.76958e-09
-2.1622e-09
-1.90918e-10
7.74813e-11
1.68933e-09
2.42372e-09
6.25578e-10
4.82226e-11
7.3068e-11
9.16144e-11
-2.84929e-10
-1.1016e-08
-1.50621e-08
-3.0739e-09
-5.1164e-11
7.19512e-12
3.86984e-11
3.87086e-11
2.20633e-11
7.52082e-12
1.69283e-12
4.07178e-13
1.07138e-12
2.05861e-11
1.91547e-10
4.99294e-10
3.96179e-10
1.53953e-10
2.01919e-11
1.7604e-11
-4.32753e-11
-3.62227e-10
-1.87647e-10
-1.06046e-11
-5.20329e-16
2.54409e-12
7.20857e-11
2.43388e-10
3.16979e-11
-8.14219e-11
-1.49504e-09
-1.705e-09
-1.41783e-10
1.92948e-10
2.87646e-09
3.0623e-09
5.34204e-10
1.86401e-12
-2.02626e-14
1.27875e-11
-9.37013e-11
-7.0199e-09
-1.10031e-08
-2.07798e-09
-5.1439e-11
1.82497e-13
8.90779e-12
2.17507e-11
1.64035e-11
2.61412e-12
-1.0874e-14
-1.19041e-12
-7.17213e-13
4.31057e-13
4.30344e-11
2.3786e-10
3.82522e-10
3.49478e-10
2.31891e-10
2.8108e-10
4.30121e-13
-1.25964e-10
-1.61186e-10
-2.04962e-11
-2.51876e-13
6.64868e-14
1.23819e-11
1.10809e-10
4.98678e-11
-1.54899e-11
-5.4347e-10
-5.45448e-10
-4.71131e-12
5.7783e-10
2.8519e-09
1.97214e-09
2.82691e-10
-3.19752e-14
-2.66953e-11
-9.96129e-13
-5.11419e-11
-3.03053e-09
-5.14812e-09
-1.02015e-09
-7.63839e-11
-3.47101e-12
4.98777e-13
1.28065e-11
1.15252e-11
3.25688e-13
-3.70256e-12
-2.79386e-11
-2.60509e-11
-1.64145e-12
6.60283e-12
9.93259e-11
2.33411e-10
3.80929e-10
5.70009e-10
8.12627e-10
6.7654e-11
-3.28204e-11
-1.93582e-10
-5.72504e-11
-5.16824e-13
2.59584e-12
1.86573e-11
5.90939e-11
3.28147e-11
-7.30147e-12
-2.94224e-10
-9.0244e-11
3.81522e-11
1.07275e-09
1.75682e-09
7.47193e-10
9.65063e-11
8.93909e-15
-3.22746e-11
-2.60999e-11
-3.83856e-11
-6.68196e-10
-1.2145e-09
-4.62264e-10
-1.84239e-10
-4.86008e-11
-1.27128e-13
9.42909e-12
7.90628e-12
-2.22135e-13
-4.23724e-11
-1.56274e-10
-1.37673e-10
-2.27289e-11
5.52822e-13
5.57774e-11
1.6778e-10
3.17258e-10
7.53676e-10
1.24437e-09
2.77853e-10
-7.80029e-12
-3.142e-10
-2.3663e-10
-1.09645e-11
1.25891e-11
1.26084e-10
1.6273e-10
4.07895e-11
-5.4604e-12
-2.69427e-10
-6.2661e-11
1.11918e-10
1.20192e-09
1.17357e-09
3.58712e-10
2.83463e-11
1.48129e-14
-3.76826e-12
-9.76987e-12
-8.6095e-12
-3.60305e-11
-1.02181e-10
-2.38888e-10
-3.70554e-10
-1.47149e-10
-1.50292e-12
9.83815e-12
7.14776e-12
-3.98713e-12
-1.90066e-10
-5.68401e-10
-4.84694e-10
-1.04382e-10
-1.70075e-13
3.80001e-11
1.49011e-10
2.8418e-10
7.71239e-10
1.37918e-09
4.73948e-10
-1.72379e-12
-3.50916e-10
-4.08295e-10
-5.25558e-11
3.06932e-12
1.70663e-10
3.38735e-10
1.01866e-10
-2.00936e-12
-2.83808e-10
-1.54555e-10
2.60936e-11
8.79497e-10
1.076e-09
2.00641e-10
4.12878e-13
-1.9563e-13
2.28588e-12
6.46772e-12
2.02842e-12
3.86907e-13
-2.66011e-12
-1.66806e-10
-5.01114e-10
-2.02481e-10
-1.55209e-12
1.67738e-11
1.34865e-11
-5.05017e-12
-3.55253e-10
-1.34651e-09
-1.39984e-09
-4.11802e-10
-8.31539e-12
2.02617e-11
1.31275e-10
2.69594e-10
7.28281e-10
1.22244e-09
5.77839e-10
1.31375e-12
-1.44681e-10
-2.21475e-10
-5.49659e-11
-2.9952e-13
3.78906e-11
2.44229e-10
1.7691e-10
4.56075e-14
-3.18484e-10
-4.37731e-10
1.08705e-13
5.43601e-10
8.28783e-10
3.3218e-11
-3.63594e-11
-1.27482e-11
1.01293e-10
5.68628e-10
2.79901e-10
4.21262e-11
-5.46444e-13
-1.88426e-10
-4.8534e-10
-1.36707e-10
-1.23758e-14
4.33508e-11
4.44042e-11
-2.23079e-13
-2.53315e-10
-1.84622e-09
-3.11913e-09
-1.52056e-09
-1.10866e-10
5.12915e-12
1.1166e-10
2.37e-10
5.93436e-10
8.83939e-10
6.19025e-10
4.22759e-11
-2.2171e-12
-2.48609e-11
-3.13835e-11
-2.10275e-11
-1.89627e-13
4.64055e-11
2.32471e-10
4.43369e-11
-7.89352e-11
-6.46007e-10
-3.95753e-11
1.7357e-10
2.72914e-10
-4.66106e-12
-4.21035e-10
-7.63058e-11
2.88156e-10
2.88619e-09
2.06657e-09
2.3018e-10
-1.42537e-12
-1.87401e-10
-3.0389e-10
-5.60837e-11
6.02245e-13
6.47141e-11
1.08291e-10
1.84584e-11
-2.3287e-11
-1.0751e-09
-4.35437e-09
-4.39052e-09
-9.55887e-10
-4.53444e-12
7.51319e-11
2.43902e-10
4.6305e-10
5.11685e-10
4.34814e-10
1.48024e-10
1.45237e-11
2.8426e-15
-9.85476e-12
-5.80501e-11
-4.89398e-11
-2.62084e-13
7.91246e-11
1.73052e-10
7.91212e-13
-1.70476e-10
-8.85148e-11
1.80615e-12
9.72052e-13
-1.20387e-10
-4.84784e-10
-8.26104e-11
1.49944e-10
3.59653e-09
5.17463e-09
1.12404e-09
3.49623e-12
-1.2284e-10
-2.83708e-10
-8.92849e-11
-3.29255e-13
3.60502e-11
1.91806e-10
2.27578e-10
2.83655e-11
-1.18087e-10
-2.94021e-09
-7.34399e-09
-4.17924e-09
-3.49955e-10
8.28774e-12
2.40073e-10
4.2674e-10
3.61066e-10
1.3319e-10
3.06641e-11
5.21008e-12
1.62263e-12
1.89795e-13
-1.41881e-12
-2.19725e-11
-1.17538e-11
4.41807e-12
1.29423e-10
4.63505e-11
-5.56029e-12
-7.39209e-11
-2.93921e-11
-1.93268e-11
-4.05361e-11
-4.58932e-11
-1.29736e-11
1.63758e-11
1.24646e-09
3.98898e-09
1.88752e-09
3.86622e-11
-1.14165e-10
-4.52561e-10
-1.92959e-10
-4.5342e-12
2.36587e-11
2.58988e-10
5.85356e-10
4.05025e-10
5.76149e-12
-7.93299e-10
-6.32393e-09
-8.22571e-09
-2.44684e-09
-4.15683e-11
1.11558e-10
4.72708e-10
3.45619e-10
4.6671e-11
9.14777e-14
-2.92514e-13
3.46968e-13
1.40429e-11
1.44673e-11
1.70448e-13
-1.84551e-12
1.2135e-14
3.29651e-11
5.02199e-11
-3.43157e-14
-5.40097e-11
-6.63488e-11
-5.30469e-12
2.76614e-16
-2.81045e-13
-4.10438e-12
1.23946e-12
3.99501e-10
1.8444e-09
1.16766e-09
3.19561e-11
-9.5638e-11
-3.92101e-10
-1.57854e-10
-4.54246e-12
8.73453e-12
1.30287e-10
4.45535e-10
6.87415e-10
2.227e-10
-3.31056e-11
-2.78857e-09
-8.16726e-09
-5.26163e-09
-5.97987e-10
6.78658e-12
3.47045e-10
1.31612e-10
2.17488e-11
-8.20344e-14
-1.86474e-12
4.42961e-14
1.74488e-11
5.5877e-11
2.14541e-11
1.69136e-13
-4.16759e-14
2.27214e-12
1.47065e-11
1.74981e-13
-1.05595e-11
-4.94101e-12
1.08302e-12
2.59645e-12
-4.82139e-12
-5.86617e-11
-6.84136e-12
8.18757e-11
8.56302e-10
7.18226e-10
3.2793e-11
-3.45051e-11
-1.6572e-10
-5.43644e-11
-7.22413e-13
1.23517e-12
1.42691e-11
1.30716e-10
6.41366e-10
8.85558e-10
8.54519e-11
-3.40499e-10
-4.28814e-09
-5.51074e-09
-1.55346e-09
-2.59485e-11
4.90954e-11
-7.12519e-14
-9.01224e-12
-3.87833e-11
-2.34053e-11
-3.58932e-13
2.43525e-11
2.32389e-10
3.51774e-10
9.95046e-11
8.23886e-13
-8.56228e-13
4.46653e-15
2.00267e-12
5.76802e-12
1.84908e-11
1.51179e-11
-4.82279e-13
-9.39305e-11
-2.49001e-10
-1.0011e-10
-1.20293e-13
7.63131e-11
1.80933e-10
5.14156e-11
2.85754e-12
8.98323e-13
1.06382e-12
-8.12241e-14
-1.8465e-11
-9.63335e-12
3.51788e-11
1.0556e-09
2.65064e-09
1.28839e-09
7.35564e-12
-8.4211e-10
-3.0265e-09
-1.71388e-09
-2.01655e-10
-1.8579e-12
-1.46876e-10
-3.29667e-10
-4.06655e-10
-1.4955e-10
-1.85611e-12
5.54881e-11
4.53259e-10
8.82305e-10
5.17435e-10
2.34004e-11
-2.21398e-11
-7.86333e-11
-6.82043e-12
2.57519e-12
1.80768e-11
4.77355e-12
-2.68296e-13
-1.67307e-11
-4.57828e-11
-4.99801e-11
-2.25433e-11
-9.69222e-13
1.43853e-12
9.08961e-12
3.19336e-12
-3.42496e-13
-4.14155e-11
-1.79549e-10
-1.38171e-10
-9.78693e-13
3.49981e-10
3.15611e-09
6.06887e-09
4.0153e-09
5.12795e-10
-1.99051e-11
-8.389e-10
-1.18081e-09
-4.78708e-10
-1.4284e-10
-2.03844e-10
-2.72427e-10
-2.73132e-10
-8.26278e-11
-9.24522e-13
1.21517e-11
1.02854e-10
2.90347e-10
3.73987e-10
9.2907e-11
-3.81361e-12
-2.59127e-10
-4.64847e-10
-2.33112e-10
-4.52147e-11
-1.82282e-12
9.06696e-14
1.27469e-12
1.44669e-12
4.21517e-13
-5.25446e-16
-2.53453e-13
-2.4017e-13
-4.91529e-15
-5.13248e-15
-1.27971e-12
-1.77006e-11
-5.42142e-11
-3.49787e-11
-3.21265e-13
8.77279e-11
1.05052e-09
3.13879e-09
3.65989e-09
1.2812e-09
1.51263e-11
-2.31151e-10
-9.48295e-10
-7.57731e-10
-3.17441e-10
-1.56029e-10
-6.7612e-11
-3.39379e-11
-1.14256e-11
-1.51146e-12
-7.61378e-15
1.53683e-12
2.42436e-11
6.83304e-11
3.74326e-11
-4.41538e-14
-1.08245e-10
-5.83681e-10
-7.72615e-10
-3.4057e-10
-2.40048e-11
3.86335e-12
7.17228e-11
1.03885e-10
5.46241e-11
1.72273e-11
6.88772e-12
6.48942e-12
1.02041e-11
1.0443e-11
2.92442e-12
-6.85608e-15
-4.56823e-12
-2.10054e-11
-1.43487e-11
-2.01862e-14
4.79732e-11
3.79563e-10
8.06707e-10
6.84007e-10
1.30735e-10
-1.14874e-12
-1.79069e-10
-4.57162e-10
-3.58071e-10
-8.76957e-13
2.65025e-13
1.58985e-12
5.72181e-14
-4.44862e-12
-3.01376e-11
-1.98462e-11
-1.23419e-13
6.77328e-12
6.2334e-12
-1.13568e-12
-1.1508e-10
-4.42109e-10
-4.36587e-10
-9.84624e-11
1.16107e-13
7.80129e-11
2.55784e-10
2.15894e-10
8.61678e-11
3.83489e-11
4.68413e-11
1.12504e-10
2.01444e-10
1.96136e-10
5.3089e-11
-5.85347e-13
-1.55225e-10
-5.89336e-10
-5.0826e-10
-8.58582e-11
1.45392e-12
1.21764e-10
2.20188e-10
9.78714e-11
7.88481e-12
-8.05916e-13
-2.41411e-11
-4.14764e-11
-1.77144e-11
2.27858e-14
2.29825e-12
4.34746e-12
2.92448e-13
-4.82629e-12
-6.55734e-11
-1.03654e-10
-1.5048e-11
4.7211e-12
5.15772e-11
5.79244e-12
-3.44078e-11
-4.20005e-10
-5.34001e-10
-1.20462e-10
-5.03868e-14
4.29845e-11
1.16055e-10
9.95861e-11
6.969e-11
7.56638e-11
1.14745e-10
1.62322e-10
1.60854e-10
7.20535e-11
2.57557e-12
-2.24243e-11
-2.95789e-10
-7.48882e-10
-7.09294e-10
-1.84761e-10
2.42545e-13
1.92501e-10
5.44834e-10
2.61148e-10
1.90874e-11
-1.61705e-13
-5.62668e-12
-5.4601e-12
-9.49326e-13
1.16011e-13
4.81032e-11
1.86349e-10
1.39574e-10
6.30204e-12
-3.49672e-11
-2.75224e-10
-2.11657e-10
-6.89915e-12
3.75441e-11
1.8449e-10
7.23404e-11
1.03215e-14
-5.83429e-11
-2.14852e-10
-2.1687e-10
-9.3184e-11
-1.73999e-11
-5.11328e-13
6.62366e-13
1.51671e-11
7.37184e-11
1.7321e-10
2.45272e-10
1.73467e-10
3.289e-11
-5.57733e-13
-1.09474e-10
-5.63314e-10
-9.50485e-10
-6.13938e-10
-7.03359e-11
1.2639e-11
3.85703e-10
6.32694e-10
2.09752e-10
3.55984e-12
-1.73016e-11
-7.03385e-11
-2.605e-11
-1.0699e-12
-9.77244e-13
-9.43234e-16
4.19405e-13
8.1421e-13
1.26181e-12
1.19871e-12
7.37719e-15
-1.08819e-12
-4.8826e-12
-6.72963e-12
-7.87806e-12
-9.38885e-12
-1.00788e-11
-9.59036e-12
-1.10133e-11
-1.06851e-11
-6.83679e-13
2.45393e-11
2.62334e-10
2.67642e-10
3.30616e-11
-3.04628e-13
-5.63934e-11
-2.23097e-10
-3.77098e-10
-3.82246e-10
-2.47437e-10
-7.93342e-11
-5.65596e-12
3.76328e-12
3.54781e-11
6.09732e-11
3.93373e-11
1.55556e-11
1.005e-11
5.86594e-12
2.17162e-12
7.82236e-13
3.37761e-15
-3.42532e-11
-9.78086e-12
-2.92635e-13
1.94944e-16
1.78735e-14
5.45323e-13
5.36986e-12
1.47018e-12
-2.20671e-12
-5.67635e-11
-1.22963e-10
-1.08615e-10
-6.11934e-11
-2.67284e-11
-1.29211e-11
-1.83524e-11
-4.45044e-11
-1.71133e-11
2.67482e-11
1.16845e-09
2.11516e-09
2.60638e-10
-5.01681e-11
-1.13388e-09
-1.81285e-09
-1.31447e-09
-6.84548e-10
-3.17034e-10
-1.0151e-10
-8.90826e-12
6.93423e-12
7.37983e-11
1.69626e-10
1.62491e-10
6.37654e-11
2.2535e-11
1.42793e-11
1.01135e-12
-1.32779e-12
-2.09913e-11
-9.37142e-11
-2.25075e-11
-1.02119e-12
-3.65058e-13
-1.21655e-12
-2.21381e-13
1.35557e-12
1.13242e-11
5.70662e-13
-1.99769e-11
-1.53287e-10
-1.52912e-10
-4.75556e-11
-3.52831e-12
1.62208e-14
1.49699e-14
-3.7084e-12
-2.86282e-11
-3.74272e-13
3.57399e-10
2.31047e-09
7.4326e-10
-4.42886e-11
-2.39409e-09
-3.00655e-09
-1.10066e-09
-1.69522e-10
-1.23083e-11
-2.23201e-13
1.00264e-12
1.47168e-11
5.41127e-11
1.00512e-10
1.21282e-10
7.25594e-11
2.01667e-11
8.97693e-12
1.98982e-12
-3.31654e-12
-6.80496e-11
-1.6067e-10
-3.93569e-11
-5.04567e-13
-1.75347e-14
-1.15353e-12
-8.13197e-13
4.17658e-13
2.837e-11
2.47963e-11
-5.98085e-13
-1.13885e-10
-1.65389e-10
-2.90151e-11
7.72199e-14
2.78014e-11
4.69825e-11
2.18199e-12
-1.32473e-11
-2.38173e-11
5.26418e-11
2.14361e-09
1.69497e-09
-1.81952e-11
-4.34661e-09
-5.75672e-09
-1.43588e-09
-5.57682e-11
2.0036e-12
3.12963e-11
6.08333e-11
9.50872e-11
1.36617e-10
1.69914e-10
1.98774e-10
1.64511e-10
5.82363e-11
1.53105e-11
7.40317e-12
-5.98916e-14
-6.76206e-11
-2.59993e-10
-1.02515e-10
-1.45595e-12
3.27862e-15
-6.9773e-13
-2.2813e-12
1.39579e-15
2.65846e-11
1.22264e-10
9.02698e-12
-4.35442e-11
-2.16348e-10
-5.06368e-11
1.10621e-12
1.36864e-10
2.56445e-10
4.2063e-11
-8.30658e-12
-1.61867e-10
-5.24917e-12
1.09759e-09
3.26299e-09
8.09736e-12
-5.83753e-09
-1.09515e-08
-2.84742e-09
-8.74084e-11
7.50674e-12
8.59718e-11
1.3095e-10
1.48998e-10
1.62152e-10
1.71965e-10
2.25171e-10
3.24127e-10
2.39211e-10
7.41032e-11
2.96545e-11
3.62276e-12
-3.05312e-11
-2.74063e-10
-2.51933e-10
-9.81758e-12
1.81659e-14
-1.83118e-13
-4.41189e-12
-2.0344e-12
1.23578e-12
1.29546e-10
1.61553e-10
8.21162e-14
-8.81878e-11
-4.95651e-11
3.68815e-12
3.23328e-10
5.99286e-10
1.17094e-10
-3.31634e-12
-2.7129e-10
-2.0924e-10
1.23578e-10
3.10376e-09
1.1547e-10
-5.77851e-09
-1.60743e-08
-4.71831e-09
-1.74918e-10
2.34174e-12
5.22505e-11
8.33392e-11
8.83861e-11
7.76375e-11
6.20992e-11
7.86315e-11
2.06647e-10
3.90036e-10
2.55146e-10
1.13446e-10
5.09842e-11
-7.30482e-13
-1.00017e-10
-4.40916e-10
-4.29002e-11
9.24457e-15
2.63693e-15
-2.7413e-12
-9.62805e-12
-3.44079e-12
9.45758e-12
2.76877e-10
1.22005e-10
-3.41942e-14
-4.00802e-12
1.76841e-11
4.56931e-10
6.22501e-10
6.66382e-11
-7.50146e-12
-2.42147e-10
-4.11922e-10
-8.93317e-14
1.41833e-09
1.88668e-10
-4.71497e-09
-1.61958e-08
-4.43788e-09
-1.21954e-10
1.82879e-12
1.99462e-11
1.73465e-11
8.73652e-12
1.88771e-12
9.13839e-14
4.24901e-13
2.58631e-11
2.46502e-10
4.46863e-10
3.16437e-10
2.23662e-10
2.21432e-11
-1.30123e-12
-3.53449e-10
-1.21258e-10
-1.5457e-14
6.88803e-13
-1.87229e-13
-1.42717e-11
-5.52224e-11
-2.26554e-11
2.11874e-11
3.84254e-10
1.83167e-10
3.29552e-11
1.17981e-10
4.4241e-10
2.48296e-10
3.99758e-12
-3.11207e-11
-1.66052e-10
-3.28061e-10
-4.19104e-11
2.62065e-10
7.80143e-11
-3.20409e-09
-1.06509e-08
-2.27304e-09
-2.29758e-11
7.90629e-12
1.87176e-11
7.07339e-12
1.34878e-13
-6.16727e-12
-6.69376e-11
-9.49541e-11
-8.50808e-12
2.95086e-11
3.60013e-10
5.54111e-10
5.78741e-10
2.73894e-10
6.62553e-11
-6.50451e-11
-1.02837e-10
-2.24023e-14
6.38729e-12
3.22376e-13
-5.1909e-12
-1.02065e-10
-3.18948e-10
-8.22394e-11
4.84555e-11
7.6648e-10
7.91251e-10
5.56419e-10
3.46058e-10
5.16149e-11
-8.37517e-13
-4.25366e-11
-7.14763e-11
-1.82804e-10
-1.57223e-10
2.48392e-12
3.25623e-12
-1.59238e-09
-4.19255e-09
-5.20768e-10
1.33647e-13
2.48993e-11
2.18995e-11
5.53312e-12
-9.01785e-14
-4.36916e-11
-3.60406e-10
-7.34739e-10
-3.71687e-10
-5.89969e-12
1.00039e-10
5.4999e-10
9.71479e-10
9.37606e-10
5.81122e-10
1.02434e-13
-2.76324e-11
-7.39345e-14
2.15928e-12
5.19748e-13
5.03106e-15
-7.6478e-12
-2.70885e-10
-8.48053e-10
-1.04423e-10
2.02457e-10
1.90468e-09
1.76604e-09
5.12039e-10
2.27932e-11
-7.31019e-13
-1.01091e-11
-1.83231e-11
-9.92904e-11
-2.80076e-10
-3.94073e-11
-5.20733e-12
-4.51695e-10
-6.02817e-10
-8.59309e-12
1.33311e-11
2.43439e-11
1.57675e-11
4.9142e-12
-3.20803e-13
-9.36059e-11
-7.18563e-10
-1.51295e-09
-1.13129e-09
-1.66042e-10
3.20273e-12
2.69814e-10
1.00382e-09
1.73794e-09
1.58514e-09
7.88941e-11
-3.46522e-12
-4.92754e-12
-4.94099e-13
-1.52162e-14
8.40829e-13
1.77464e-12
-1.17078e-11
-6.64334e-10
-1.30507e-09
-3.18016e-11
7.40428e-10
2.91829e-09
1.56645e-09
2.53876e-10
9.09516e-12
-4.5571e-13
-1.33634e-11
-6.3225e-11
-2.53098e-10
-2.10979e-10
-4.59773e-11
-2.40379e-11
9.90422e-15
1.7233e-11
7.68924e-12
2.68405e-12
6.58256e-12
4.97729e-12
-6.71675e-13
-1.50816e-10
-1.11624e-09
-2.22005e-09
-1.65815e-09
-3.69746e-10
-2.1387e-12
6.6474e-11
5.81017e-10
1.92054e-09
2.22668e-09
3.83266e-10
-5.42692e-14
-1.90951e-11
-1.2522e-11
-2.15266e-12
4.7325e-13
1.23319e-11
3.93193e-13
-1.89088e-10
-1.75404e-09
-9.62735e-10
1.86569e-11
2.87819e-09
4.95373e-09
1.7285e-09
1.02531e-10
-2.83322e-12
-4.70211e-11
-3.25212e-11
-7.36049e-11
-1.78127e-10
-3.52672e-11
6.57275e-12
1.17282e-10
1.98683e-11
-6.65275e-15
2.41282e-14
7.67459e-12
9.1467e-12
-8.72383e-13
-2.19987e-10
-1.63697e-09
-3.37711e-09
-2.41471e-09
-5.25321e-10
-9.26735e-12
1.43054e-11
2.33193e-10
1.37929e-09
1.9501e-09
6.54318e-10
3.35644e-12
-1.37683e-11
-1.47107e-11
-1.79514e-12
4.7365e-13
1.66621e-11
5.08348e-12
-5.92438e-11
-1.4337e-09
-2.00145e-09
-2.91513e-11
2.02988e-09
7.76358e-09
3.22722e-09
9.95081e-11
-5.57902e-11
-1.57588e-10
-6.92014e-12
-2.94592e-15
-1.00739e-11
-2.54702e-12
2.43085e-11
4.69282e-11
2.02968e-13
-1.90714e-13
1.97695e-12
3.01929e-11
2.43941e-11
3.71607e-14
-1.22521e-10
-1.51521e-09
-4.61385e-09
-4.31969e-09
-1.11155e-09
-3.24589e-11
4.65973e-12
1.06446e-10
7.99689e-10
1.30907e-09
6.50609e-10
1.81917e-11
-1.6717e-12
-1.9971e-12
-8.15169e-14
5.65465e-13
1.44546e-11
1.47722e-11
-5.64474e-12
-7.58884e-10
-2.1071e-09
-1.80024e-10
9.5718e-10
6.47087e-09
2.6664e-09
1.57892e-11
-3.0687e-10
-3.05343e-10
4.37893e-15
1.0075e-10
3.66599e-11
1.83567e-12
4.53869e-12
3.49452e-12
6.1672e-13
1.35223e-12
4.50851e-12
1.00368e-11
1.65479e-11
1.2815e-11
-3.3545e-13
-3.44472e-10
-3.56919e-09
-6.84754e-09
-3.15963e-09
-2.38318e-10
5.71122e-13
7.21242e-11
4.83511e-10
7.58444e-10
5.67663e-10
8.78345e-11
3.4657e-12
3.41486e-14
-1.3038e-15
2.67307e-15
1.69607e-12
7.99332e-12
6.20913e-14
-1.69111e-10
-1.16762e-09
-2.70434e-10
2.55903e-10
2.92725e-09
9.74381e-10
-3.48872e-12
-4.67832e-10
-2.32214e-10
6.33157e-12
4.55469e-10
5.15259e-10
1.26707e-10
3.23457e-11
1.40509e-11
2.6872e-13
-9.61664e-12
-2.63628e-11
-1.23603e-12
2.15177e-11
2.58314e-10
3.35488e-10
4.49548e-12
-1.06812e-09
-7.17668e-09
-7.07313e-09
-1.37306e-09
-1.05941e-11
4.53962e-11
3.10355e-10
3.55354e-10
2.68014e-10
7.45012e-11
7.42068e-12
1.34168e-12
3.65449e-12
6.60052e-12
4.05773e-12
1.4323e-12
1.20107e-14
-2.77586e-11
-3.45114e-10
-1.83852e-10
1.48123e-11
5.29433e-10
1.78218e-10
-1.56366e-12
-9.63643e-11
-3.73097e-11
1.04788e-11
4.31242e-10
8.5252e-10
4.06666e-10
4.92543e-11
-1.29664e-12
-1.58221e-10
-3.77537e-10
-1.44524e-10
-1.40095e-12
6.61066e-11
6.67103e-10
1.50635e-09
5.82275e-10
-4.25146e-11
-4.17789e-09
-9.84169e-09
-4.17606e-09
-2.17612e-10
1.25553e-11
2.07277e-10
1.23728e-10
2.84988e-11
2.47937e-13
-4.37135e-14
2.63674e-12
6.64693e-11
1.7711e-10
1.22797e-10
1.75406e-11
-4.72223e-14
-2.13708e-11
-1.4794e-10
-1.32184e-10
-3.16097e-13
1.47518e-10
2.59048e-10
2.91671e-11
-1.88407e-12
-1.35577e-11
6.97204e-13
1.9039e-10
6.87641e-10
4.40216e-10
2.04794e-11
-4.81234e-11
-4.34684e-10
-4.62724e-10
-1.22493e-10
-1.46774e-12
2.09983e-11
2.87552e-10
1.2167e-09
1.59829e-09
1.0597e-10
-9.02975e-10
-7.83099e-09
-7.09656e-09
-1.10896e-09
-1.3453e-12
8.86147e-11
1.07101e-11
2.70475e-13
-2.38072e-12
-3.1509e-12
1.62746e-13
3.95756e-11
2.26066e-10
3.44794e-10
1.2895e-10
1.61662e-12
-2.06833e-11
-1.03534e-10
-6.24355e-11
7.99564e-13
2.8684e-10
6.60928e-10
1.20392e-10
-2.90798e-12
-1.00785e-10
-1.73033e-11
5.09338e-11
6.07271e-10
5.58988e-10
4.40179e-11
-1.74698e-11
-2.59112e-10
-3.23509e-10
-9.19208e-11
-2.79687e-12
4.96428e-13
2.29447e-11
3.40211e-10
1.59546e-09
1.10929e-09
-4.94145e-12
-2.42205e-09
-5.98442e-09
-2.39018e-09
-1.27262e-10
1.10114e-12
-1.81392e-11
-6.2459e-11
-1.18577e-10
-5.43442e-11
-8.75146e-13
1.82859e-11
1.91003e-10
4.80666e-10
3.86241e-10
4.23802e-11
-3.89353e-12
-5.37073e-11
-8.50275e-12
2.78437e-11
4.19504e-10
4.39032e-10
2.40068e-11
-4.58265e-11
-3.62805e-10
-2.28143e-10
-2.43532e-12
8.53712e-11
1.9735e-10
2.05557e-11
-3.81947e-12
-2.53096e-11
-3.40718e-12
2.07015e-14
7.06847e-15
-5.55133e-15
1.88301e-12
1.28562e-10
1.13177e-09
2.1235e-09
3.59348e-10
-1.27733e-10
-2.11105e-09
-1.99533e-09
-4.50582e-10
-4.2558e-11
-3.83728e-10
-5.56206e-10
-5.35577e-10
-1.64444e-10
-1.95445e-12
2.84182e-11
2.15594e-10
5.20226e-10
5.8711e-10
1.54796e-10
-8.66536e-14
-4.28717e-11
-1.65691e-11
1.88309e-12
6.40342e-11
6.1483e-11
2.18617e-12
-1.61343e-11
-1.45171e-10
-1.96759e-10
-5.63751e-11
-1.57576e-13
9.42096e-12
1.09305e-11
1.30227e-12
-1.53022e-16
-1.29758e-12
-1.02243e-11
-8.39049e-12
5.01271e-13
1.24098e-10
7.59486e-10
1.84427e-09
2.61666e-09
1.24771e-09
1.55832e-11
-3.06198e-10
-1.09831e-09
-8.07179e-10
-4.16216e-10
-7.17501e-10
-4.70967e-10
-2.34566e-10
-3.30654e-11
2.20998e-13
2.45754e-11
6.54046e-11
1.31985e-10
2.65898e-10
2.00074e-10
6.07641e-12
-6.37526e-11
-3.59406e-10
-2.90905e-10
-4.36868e-11
1.90838e-13
1.7174e-11
1.25535e-11
5.09146e-14
-7.50829e-12
-1.82798e-11
-2.5372e-12
5.40963e-13
5.82944e-12
7.99943e-13
-2.55454e-12
-3.2207e-11
-3.67208e-11
-4.00534e-12
4.59264e-12
1.43316e-10
6.28605e-10
1.51816e-09
2.51484e-09
1.86442e-09
2.06818e-10
-3.70846e-11
-8.6878e-10
-1.50997e-09
-1.16624e-09
-6.71037e-10
-2.13693e-10
-2.29022e-11
1.19632e-14
2.87261e-12
1.01648e-12
-1.06678e-15
-7.05959e-16
1.98304e-12
1.79692e-11
4.70326e-12
-2.1305e-11
-4.54691e-10
-9.14133e-10
-3.3212e-10
-8.01602e-13
1.83736e-10
5.45895e-10
2.63045e-10
1.57136e-11
-4.37885e-13
-2.09639e-12
1.89305e-14
5.57215e-12
1.46448e-11
8.8357e-12
1.20804e-12
-1.32383e-13
-3.85025e-12
-1.79468e-12
4.41931e-13
2.09624e-11
9.78789e-11
3.93973e-10
8.89347e-10
4.9132e-10
7.72784e-12
-1.48879e-10
-8.97088e-10
-1.14523e-09
-1.88011e-11
-1.77213e-12
4.70176e-16
1.45412e-14
-1.13632e-12
-2.46151e-11
-5.18705e-11
-1.61735e-11
-9.5527e-14
1.25537e-13
-4.59392e-13
-4.81107e-11
-2.97639e-10
-4.13602e-10
-8.86346e-11
6.60299e-12
4.05943e-10
9.29796e-10
5.18434e-10
7.63605e-11
1.7724e-12
2.6462e-13
1.53953e-11
1.4261e-10
3.28062e-10
1.82418e-10
2.46352e-12
-1.1029e-10
-5.62521e-10
-4.2957e-10
-3.55605e-11
6.73685e-12
6.67308e-11
5.18492e-11
2.43321e-11
9.07508e-12
8.6932e-14
-7.99369e-12
-4.48289e-11
-4.95786e-11
2.93384e-14
2.46475e-12
2.25772e-12
-2.59006e-14
-1.40693e-11
-9.77891e-11
-1.52339e-10
-4.57057e-11
2.93678e-14
1.68616e-11
6.07769e-12
-6.56271e-12
-1.79953e-10
-3.52045e-10
-1.26281e-10
-4.78626e-13
6.51499e-11
2.77515e-10
2.81688e-10
1.20043e-10
3.06008e-11
1.40025e-11
2.76312e-11
7.5513e-11
9.66438e-11
2.34932e-11
-1.89823e-12
-1.70599e-10
-6.452e-10
-6.6731e-10
-1.26834e-10
6.30354e-12
3.49242e-10
5.54427e-10
1.74116e-10
5.79578e-12
-2.77772e-12
-2.4571e-11
-2.38043e-11
-4.09132e-12
-5.56006e-12
7.62021e-12
6.84227e-11
4.19395e-11
6.59005e-14
-6.26979e-11
-2.43044e-10
-1.40408e-10
-3.90593e-12
1.87454e-11
8.17102e-11
2.35748e-11
-6.33948e-13
-6.28256e-11
-1.71931e-10
-1.53648e-10
-6.60048e-11
-1.34925e-11
-5.14337e-13
4.42804e-13
1.46206e-11
8.74179e-11
2.70918e-10
4.56874e-10
3.54052e-10
7.50227e-11
-4.93941e-13
-1.63434e-10
-8.32112e-10
-1.27338e-09
-6.27025e-10
-2.13109e-11
1.10571e-10
9.01004e-10
1.04024e-09
3.20316e-10
8.53255e-12
-1.5948e-11
-1.10191e-10
-8.75022e-11
-5.83621e-13
5.62184e-14
3.13156e-12
3.38066e-12
2.71398e-13
-1.18989e-13
-1.8328e-12
-3.70746e-12
-3.56956e-12
-2.48489e-12
-3.50686e-12
-7.45489e-12
-1.49347e-11
-2.86528e-11
-5.92713e-11
-1.25577e-10
-2.15861e-10
-2.1507e-10
-6.93383e-11
9.97996e-14
6.9359e-11
7.11226e-11
1.48633e-12
-4.86548e-12
-4.95787e-11
-8.70723e-11
-5.95256e-11
-2.09474e-11
-5.15593e-12
-1.389e-12
-6.18883e-13
-9.10137e-13
-5.2122e-12
-3.49024e-11
-9.84349e-11
-5.97232e-11
-2.65277e-12
1.18962e-13
9.39691e-15
-3.72265e-13
1.71616e-12
1.24807e-11
1.09821e-11
1.10884e-13
-5.36017e-12
-1.8863e-11
-1.19784e-11
-1.93277e-12
-4.51232e-14
-5.55918e-14
-5.9533e-12
-5.03494e-11
-1.36276e-10
-2.29708e-10
-3.48827e-10
-5.41381e-10
-7.34892e-10
-6.04808e-10
-1.48664e-10
2.33204e-12
4.67775e-10
7.17278e-10
6.10316e-12
-3.35972e-10
-1.36291e-09
-1.30181e-09
-5.56449e-10
-1.34612e-10
-2.57324e-11
-6.69308e-12
-2.69743e-12
-1.2299e-12
-9.88262e-13
-6.90938e-12
-5.65963e-11
-5.68416e-11
1.1219e-13
3.8347e-11
2.04913e-11
1.34773e-12
1.08218e-11
3.42618e-11
1.6144e-11
-1.29148e-13
-2.68862e-11
-4.52528e-11
-1.10134e-11
-1.3699e-14
3.46232e-12
7.27991e-12
1.56576e-13
-5.24254e-12
-3.79984e-11
-6.54963e-11
-8.4429e-11
-1.32078e-10
-2.22854e-10
-2.44215e-10
-7.40551e-11
1.01884e-12
3.35727e-10
1.1619e-09
1.47069e-10
-2.16248e-10
-2.10747e-09
-1.8914e-09
-5.25623e-10
-4.52175e-11
-3.0533e-13
9.59447e-13
2.12225e-12
1.7089e-12
1.53432e-12
6.38233e-13
-6.59954e-14
-3.76868e-12
1.74968e-14
5.43459e-11
9.14017e-11
1.67878e-11
1.64019e-11
4.65495e-11
2.39563e-11
-3.06782e-13
-4.92313e-11
-6.87537e-11
-9.34779e-12
2.84942e-13
1.52606e-11
2.86982e-11
6.07408e-12
-9.32714e-14
-7.53857e-12
-1.23599e-11
-1.22102e-11
-2.44888e-11
-7.05949e-11
-1.32719e-10
-7.94665e-11
-8.64397e-14
2.31105e-10
1.55701e-09
7.21872e-10
-4.97633e-11
-2.66583e-09
-2.65266e-09
-4.56318e-10
-2.93149e-12
2.10881e-11
8.62639e-11
9.66169e-11
6.67321e-11
4.42063e-11
3.17382e-11
1.00685e-11
1.67306e-13
4.0984e-13
4.72384e-11
1.47533e-10
4.59209e-11
3.08571e-11
6.39988e-11
4.32762e-11
-1.79736e-13
-7.38992e-11
-1.14834e-10
-1.36506e-11
1.51413e-12
3.76645e-11
6.58094e-11
2.5203e-11
3.2941e-13
-1.16505e-12
-3.02488e-12
-4.23867e-12
-1.56809e-11
-6.62199e-11
-1.69617e-10
-2.17412e-10
-4.68127e-11
2.22312e-11
1.22221e-09
1.83097e-09
6.33491e-13
-3.06069e-09
-4.82748e-09
-8.96224e-10
-3.1692e-12
6.30176e-11
2.33853e-10
2.61782e-10
1.76625e-10
1.04165e-10
8.16493e-11
5.98618e-11
1.48337e-11
3.98158e-12
4.27009e-11
1.82798e-10
1.02692e-10
6.61751e-11
9.91039e-11
9.02322e-11
2.63208e-13
-8.39858e-11
-1.91149e-10
-3.37515e-11
1.55737e-12
8.10625e-11
1.64506e-10
9.87152e-11
1.63947e-11
3.56299e-13
-4.63623e-15
-3.3993e-13
-7.7075e-12
-6.39719e-11
-2.13911e-10
-3.41777e-10
-2.23828e-10
-4.65584e-12
3.30388e-10
2.13539e-09
9.13347e-11
-2.43951e-09
-7.17697e-09
-1.86129e-09
-2.27884e-11
5.04082e-11
2.71071e-10
3.16785e-10
1.85919e-10
7.47887e-11
4.40795e-11
5.77159e-11
5.18003e-11
2.34524e-11
4.71045e-11
1.76381e-10
1.57719e-10
1.03394e-10
1.63089e-10
1.73578e-10
5.07124e-12
-6.56812e-11
-2.70092e-10
-9.16434e-11
-1.85503e-14
7.39711e-11
2.74689e-10
2.53767e-10
9.14747e-11
1.40895e-11
1.29872e-12
1.2777e-14
-2.15e-12
-5.49755e-11
-2.91742e-10
-5.15736e-10
-3.79008e-10
-7.19318e-11
2.89847e-11
1.26004e-09
2.06193e-10
-1.61098e-09
-7.147e-09
-2.26896e-09
-5.48183e-11
1.85782e-11
1.48814e-10
1.55418e-10
5.25424e-11
3.54431e-12
6.01236e-14
2.58245e-12
3.2938e-11
6.05741e-11
8.49029e-11
1.84784e-10
1.78905e-10
1.06074e-10
2.28736e-10
3.08051e-10
3.12045e-11
-2.7903e-11
-2.91164e-10
-2.00488e-10
-1.46323e-11
5.9466e-12
1.71811e-10
3.75402e-10
2.86232e-10
9.27162e-11
1.64362e-11
1.81298e-12
-1.83631e-14
-2.71187e-11
-3.02216e-10
-6.204e-10
-4.68324e-10
-1.82794e-10
-1.62062e-13
3.59758e-10
1.02662e-10
-9.25496e-10
-4.30444e-09
-1.3289e-09
-3.0107e-11
9.06843e-12
6.39873e-11
4.07023e-11
6.36499e-13
-2.67687e-11
-1.65192e-10
-9.23912e-11
-3.43512e-13
3.85992e-11
1.50746e-10
2.60318e-10
2.03821e-10
9.45531e-11
2.2512e-10
4.70262e-10
8.86297e-11
-8.48665e-12
-2.69311e-10
-3.40515e-10
-1.15206e-10
-8.39858e-12
7.3848e-12
2.39754e-10
5.88067e-10
4.56379e-10
1.56261e-10
2.94233e-11
1.07391e-12
-1.27766e-11
-2.36121e-10
-4.62244e-10
-3.84835e-10
-2.99476e-10
-4.14062e-11
2.14433e-11
1.26613e-11
-3.46895e-10
-1.31305e-09
-3.14872e-10
-1.61819e-12
2.06415e-11
7.91921e-11
3.2969e-11
-4.76048e-13
-1.95657e-10